<UPF version="2.0.1">
  <PP_INFO>

 This pseudopotential file has been produced using the code
 ONCVPSP  (Optimized Norm-Conservinng Vanderbilt PSeudopotential)
 scalar-relativistic version 4.0.1 06/04/2019 by D. R. Hamann
 The code is available through a link at URL www.mat-simresearch.com.
 Documentation with the package provides a full discription of the
 input data below.


 While it is not required under the terms of the GNU GPL, it is
 suggested that you cite D. R. Hamann, Phys. Rev. B 88, 085117 (2013)
 in any publication using these pseudopotentials.

    <PP_INPUTFILE>
# ATOM AND REFERENCE CONFIGURATION
# atsym  z   nc   nv     iexc    psfile
  F  9.00    1    2       3      upf
#
#   n    l    f        energy (Ha)
    1    0    2.00
    2    0    2.00
    2    1    5.00
#
# PSEUDOPOTENTIAL AND OPTIMIZATION
# lmax
    1
#
#   l,   rc,      ep,       ncon, nbas, qcut
    0   1.56741   0.00000    5    8   8.73495
    1   1.64712   0.00000    5    8   8.69707
#
# LOCAL POTENTIAL
# lloc, lpopt,  rc(5),   dvloc0
    4    5   0.96222      0.00000
#
# VANDERBILT-KLEINMAN-BYLANDER PROJECTORs
# l, nproj, debl
    0    2   1.51125
    1    2   1.53167
#
# MODEL CORE CHARGE
# icmod, fcfact, rcfact
    0   0.00000   0.00000
#
# LOG DERIVATIVE ANALYSIS
# epsh1, epsh2, depsh
   -5.00    3.00    0.02
#
# OUTPUT GRID
# rlmax, drl
    6.00    0.01
#
# TEST CONFIGURATIONS
# ncnf
    0
# nvcnf
#   n    l    f
    </PP_INPUTFILE>
  </PP_INFO>
  <!--                               -->
  <!-- END OF HUMAN READABLE SECTION -->
  <!--                               -->
    <PP_HEADER
       generated="Generated using ONCVPSP code by D. R. Hamann"
       author="anonymous"
       date="200312"
       comment=""
       element="F "
       pseudo_type="NC"
       relativistic="scalar"
       is_ultrasoft="F"
       is_paw="F"
       is_coulomb="F"
       has_so="F"
       has_wfc="F"
       has_gipaw="F"
       core_correction="F"
       functional="PZ"
       z_valence="    7.00"
       total_psenergy="  -4.73627824243E+01"
       rho_cutoff="   8.23000000000E+00"
       l_max="1"
       l_local="-1"
       mesh_size="   824"
       number_of_wfc="2"
       number_of_proj="4"/>
 <PP_MESH>
   <PP_R type="real"  size=" 824" columns="8">
    0.0000    0.0100    0.0200    0.0300    0.0400    0.0500    0.0600    0.0700
    0.0800    0.0900    0.1000    0.1100    0.1200    0.1300    0.1400    0.1500
    0.1600    0.1700    0.1800    0.1900    0.2000    0.2100    0.2200    0.2300
    0.2400    0.2500    0.2600    0.2700    0.2800    0.2900    0.3000    0.3100
    0.3200    0.3300    0.3400    0.3500    0.3600    0.3700    0.3800    0.3900
    0.4000    0.4100    0.4200    0.4300    0.4400    0.4500    0.4600    0.4700
    0.4800    0.4900    0.5000    0.5100    0.5200    0.5300    0.5400    0.5500
    0.5600    0.5700    0.5800    0.5900    0.6000    0.6100    0.6200    0.6300
    0.6400    0.6500    0.6600    0.6700    0.6800    0.6900    0.7000    0.7100
    0.7200    0.7300    0.7400    0.7500    0.7600    0.7700    0.7800    0.7900
    0.8000    0.8100    0.8200    0.8300    0.8400    0.8500    0.8600    0.8700
    0.8800    0.8900    0.9000    0.9100    0.9200    0.9300    0.9400    0.9500
    0.9600    0.9700    0.9800    0.9900    1.0000    1.0100    1.0200    1.0300
    1.0400    1.0500    1.0600    1.0700    1.0800    1.0900    1.1000    1.1100
    1.1200    1.1300    1.1400    1.1500    1.1600    1.1700    1.1800    1.1900
    1.2000    1.2100    1.2200    1.2300    1.2400    1.2500    1.2600    1.2700
    1.2800    1.2900    1.3000    1.3100    1.3200    1.3300    1.3400    1.3500
    1.3600    1.3700    1.3800    1.3900    1.4000    1.4100    1.4200    1.4300
    1.4400    1.4500    1.4600    1.4700    1.4800    1.4900    1.5000    1.5100
    1.5200    1.5300    1.5400    1.5500    1.5600    1.5700    1.5800    1.5900
    1.6000    1.6100    1.6200    1.6300    1.6400    1.6500    1.6600    1.6700
    1.6800    1.6900    1.7000    1.7100    1.7200    1.7300    1.7400    1.7500
    1.7600    1.7700    1.7800    1.7900    1.8000    1.8100    1.8200    1.8300
    1.8400    1.8500    1.8600    1.8700    1.8800    1.8900    1.9000    1.9100
    1.9200    1.9300    1.9400    1.9500    1.9600    1.9700    1.9800    1.9900
    2.0000    2.0100    2.0200    2.0300    2.0400    2.0500    2.0600    2.0700
    2.0800    2.0900    2.1000    2.1100    2.1200    2.1300    2.1400    2.1500
    2.1600    2.1700    2.1800    2.1900    2.2000    2.2100    2.2200    2.2300
    2.2400    2.2500    2.2600    2.2700    2.2800    2.2900    2.3000    2.3100
    2.3200    2.3300    2.3400    2.3500    2.3600    2.3700    2.3800    2.3900
    2.4000    2.4100    2.4200    2.4300    2.4400    2.4500    2.4600    2.4700
    2.4800    2.4900    2.5000    2.5100    2.5200    2.5300    2.5400    2.5500
    2.5600    2.5700    2.5800    2.5900    2.6000    2.6100    2.6200    2.6300
    2.6400    2.6500    2.6600    2.6700    2.6800    2.6900    2.7000    2.7100
    2.7200    2.7300    2.7400    2.7500    2.7600    2.7700    2.7800    2.7900
    2.8000    2.8100    2.8200    2.8300    2.8400    2.8500    2.8600    2.8700
    2.8800    2.8900    2.9000    2.9100    2.9200    2.9300    2.9400    2.9500
    2.9600    2.9700    2.9800    2.9900    3.0000    3.0100    3.0200    3.0300
    3.0400    3.0500    3.0600    3.0700    3.0800    3.0900    3.1000    3.1100
    3.1200    3.1300    3.1400    3.1500    3.1600    3.1700    3.1800    3.1900
    3.2000    3.2100    3.2200    3.2300    3.2400    3.2500    3.2600    3.2700
    3.2800    3.2900    3.3000    3.3100    3.3200    3.3300    3.3400    3.3500
    3.3600    3.3700    3.3800    3.3900    3.4000    3.4100    3.4200    3.4300
    3.4400    3.4500    3.4600    3.4700    3.4800    3.4900    3.5000    3.5100
    3.5200    3.5300    3.5400    3.5500    3.5600    3.5700    3.5800    3.5900
    3.6000    3.6100    3.6200    3.6300    3.6400    3.6500    3.6600    3.6700
    3.6800    3.6900    3.7000    3.7100    3.7200    3.7300    3.7400    3.7500
    3.7600    3.7700    3.7800    3.7900    3.8000    3.8100    3.8200    3.8300
    3.8400    3.8500    3.8600    3.8700    3.8800    3.8900    3.9000    3.9100
    3.9200    3.9300    3.9400    3.9500    3.9600    3.9700    3.9800    3.9900
    4.0000    4.0100    4.0200    4.0300    4.0400    4.0500    4.0600    4.0700
    4.0800    4.0900    4.1000    4.1100    4.1200    4.1300    4.1400    4.1500
    4.1600    4.1700    4.1800    4.1900    4.2000    4.2100    4.2200    4.2300
    4.2400    4.2500    4.2600    4.2700    4.2800    4.2900    4.3000    4.3100
    4.3200    4.3300    4.3400    4.3500    4.3600    4.3700    4.3800    4.3900
    4.4000    4.4100    4.4200    4.4300    4.4400    4.4500    4.4600    4.4700
    4.4800    4.4900    4.5000    4.5100    4.5200    4.5300    4.5400    4.5500
    4.5600    4.5700    4.5800    4.5900    4.6000    4.6100    4.6200    4.6300
    4.6400    4.6500    4.6600    4.6700    4.6800    4.6900    4.7000    4.7100
    4.7200    4.7300    4.7400    4.7500    4.7600    4.7700    4.7800    4.7900
    4.8000    4.8100    4.8200    4.8300    4.8400    4.8500    4.8600    4.8700
    4.8800    4.8900    4.9000    4.9100    4.9200    4.9300    4.9400    4.9500
    4.9600    4.9700    4.9800    4.9900    5.0000    5.0100    5.0200    5.0300
    5.0400    5.0500    5.0600    5.0700    5.0800    5.0900    5.1000    5.1100
    5.1200    5.1300    5.1400    5.1500    5.1600    5.1700    5.1800    5.1900
    5.2000    5.2100    5.2200    5.2300    5.2400    5.2500    5.2600    5.2700
    5.2800    5.2900    5.3000    5.3100    5.3200    5.3300    5.3400    5.3500
    5.3600    5.3700    5.3800    5.3900    5.4000    5.4100    5.4200    5.4300
    5.4400    5.4500    5.4600    5.4700    5.4800    5.4900    5.5000    5.5100
    5.5200    5.5300    5.5400    5.5500    5.5600    5.5700    5.5800    5.5900
    5.6000    5.6100    5.6200    5.6300    5.6400    5.6500    5.6600    5.6700
    5.6800    5.6900    5.7000    5.7100    5.7200    5.7300    5.7400    5.7500
    5.7600    5.7700    5.7800    5.7900    5.8000    5.8100    5.8200    5.8300
    5.8400    5.8500    5.8600    5.8700    5.8800    5.8900    5.9000    5.9100
    5.9200    5.9300    5.9400    5.9500    5.9600    5.9700    5.9800    5.9900
    6.0000    6.0100    6.0200    6.0300    6.0400    6.0500    6.0600    6.0700
    6.0800    6.0900    6.1000    6.1100    6.1200    6.1300    6.1400    6.1500
    6.1600    6.1700    6.1800    6.1900    6.2000    6.2100    6.2200    6.2300
    6.2400    6.2500    6.2600    6.2700    6.2800    6.2900    6.3000    6.3100
    6.3200    6.3300    6.3400    6.3500    6.3600    6.3700    6.3800    6.3900
    6.4000    6.4100    6.4200    6.4300    6.4400    6.4500    6.4600    6.4700
    6.4800    6.4900    6.5000    6.5100    6.5200    6.5300    6.5400    6.5500
    6.5600    6.5700    6.5800    6.5900    6.6000    6.6100    6.6200    6.6300
    6.6400    6.6500    6.6600    6.6700    6.6800    6.6900    6.7000    6.7100
    6.7200    6.7300    6.7400    6.7500    6.7600    6.7700    6.7800    6.7900
    6.8000    6.8100    6.8200    6.8300    6.8400    6.8500    6.8600    6.8700
    6.8800    6.8900    6.9000    6.9100    6.9200    6.9300    6.9400    6.9500
    6.9600    6.9700    6.9800    6.9900    7.0000    7.0100    7.0200    7.0300
    7.0400    7.0500    7.0600    7.0700    7.0800    7.0900    7.1000    7.1100
    7.1200    7.1300    7.1400    7.1500    7.1600    7.1700    7.1800    7.1900
    7.2000    7.2100    7.2200    7.2300    7.2400    7.2500    7.2600    7.2700
    7.2800    7.2900    7.3000    7.3100    7.3200    7.3300    7.3400    7.3500
    7.3600    7.3700    7.3800    7.3900    7.4000    7.4100    7.4200    7.4300
    7.4400    7.4500    7.4600    7.4700    7.4800    7.4900    7.5000    7.5100
    7.5200    7.5300    7.5400    7.5500    7.5600    7.5700    7.5800    7.5900
    7.6000    7.6100    7.6200    7.6300    7.6400    7.6500    7.6600    7.6700
    7.6800    7.6900    7.7000    7.7100    7.7200    7.7300    7.7400    7.7500
    7.7600    7.7700    7.7800    7.7900    7.8000    7.8100    7.8200    7.8300
    7.8400    7.8500    7.8600    7.8700    7.8800    7.8900    7.9000    7.9100
    7.9200    7.9300    7.9400    7.9500    7.9600    7.9700    7.9800    7.9900
    8.0000    8.0100    8.0200    8.0300    8.0400    8.0500    8.0600    8.0700
    8.0800    8.0900    8.1000    8.1100    8.1200    8.1300    8.1400    8.1500
    8.1600    8.1700    8.1800    8.1900    8.2000    8.2100    8.2200    8.2300
   </PP_R>
   <PP_RAB type="real"  size=" 824" columns="8">
    0.0100    0.0100    0.0100    0.0100    0.0100    0.0100    0.0100    0.0100
    0.0100    0.0100    0.0100    0.0100    0.0100    0.0100    0.0100    0.0100
    0.0100    0.0100    0.0100    0.0100    0.0100    0.0100    0.0100    0.0100
    0.0100    0.0100    0.0100    0.0100    0.0100    0.0100    0.0100    0.0100
    0.0100    0.0100    0.0100    0.0100    0.0100    0.0100    0.0100    0.0100
    0.0100    0.0100    0.0100    0.0100    0.0100    0.0100    0.0100    0.0100
    0.0100    0.0100    0.0100    0.0100    0.0100    0.0100    0.0100    0.0100
    0.0100    0.0100    0.0100    0.0100    0.0100    0.0100    0.0100    0.0100
    0.0100    0.0100    0.0100    0.0100    0.0100    0.0100    0.0100    0.0100
    0.0100    0.0100    0.0100    0.0100    0.0100    0.0100    0.0100    0.0100
    0.0100    0.0100    0.0100    0.0100    0.0100    0.0100    0.0100    0.0100
    0.0100    0.0100    0.0100    0.0100    0.0100    0.0100    0.0100    0.0100
    0.0100    0.0100    0.0100    0.0100    0.0100    0.0100    0.0100    0.0100
    0.0100    0.0100    0.0100    0.0100    0.0100    0.0100    0.0100    0.0100
    0.0100    0.0100    0.0100    0.0100    0.0100    0.0100    0.0100    0.0100
    0.0100    0.0100    0.0100    0.0100    0.0100    0.0100    0.0100    0.0100
    0.0100    0.0100    0.0100    0.0100    0.0100    0.0100    0.0100    0.0100
    0.0100    0.0100    0.0100    0.0100    0.0100    0.0100    0.0100    0.0100
    0.0100    0.0100    0.0100    0.0100    0.0100    0.0100    0.0100    0.0100
    0.0100    0.0100    0.0100    0.0100    0.0100    0.0100    0.0100    0.0100
    0.0100    0.0100    0.0100    0.0100    0.0100    0.0100    0.0100    0.0100
    0.0100    0.0100    0.0100    0.0100    0.0100    0.0100    0.0100    0.0100
    0.0100    0.0100    0.0100    0.0100    0.0100    0.0100    0.0100    0.0100
    0.0100    0.0100    0.0100    0.0100    0.0100    0.0100    0.0100    0.0100
    0.0100    0.0100    0.0100    0.0100    0.0100    0.0100    0.0100    0.0100
    0.0100    0.0100    0.0100    0.0100    0.0100    0.0100    0.0100    0.0100
    0.0100    0.0100    0.0100    0.0100    0.0100    0.0100    0.0100    0.0100
    0.0100    0.0100    0.0100    0.0100    0.0100    0.0100    0.0100    0.0100
    0.0100    0.0100    0.0100    0.0100    0.0100    0.0100    0.0100    0.0100
    0.0100    0.0100    0.0100    0.0100    0.0100    0.0100    0.0100    0.0100
    0.0100    0.0100    0.0100    0.0100    0.0100    0.0100    0.0100    0.0100
    0.0100    0.0100    0.0100    0.0100    0.0100    0.0100    0.0100    0.0100
    0.0100    0.0100    0.0100    0.0100    0.0100    0.0100    0.0100    0.0100
    0.0100    0.0100    0.0100    0.0100    0.0100    0.0100    0.0100    0.0100
    0.0100    0.0100    0.0100    0.0100    0.0100    0.0100    0.0100    0.0100
    0.0100    0.0100    0.0100    0.0100    0.0100    0.0100    0.0100    0.0100
    0.0100    0.0100    0.0100    0.0100    0.0100    0.0100    0.0100    0.0100
    0.0100    0.0100    0.0100    0.0100    0.0100    0.0100    0.0100    0.0100
    0.0100    0.0100    0.0100    0.0100    0.0100    0.0100    0.0100    0.0100
    0.0100    0.0100    0.0100    0.0100    0.0100    0.0100    0.0100    0.0100
    0.0100    0.0100    0.0100    0.0100    0.0100    0.0100    0.0100    0.0100
    0.0100    0.0100    0.0100    0.0100    0.0100    0.0100    0.0100    0.0100
    0.0100    0.0100    0.0100    0.0100    0.0100    0.0100    0.0100    0.0100
    0.0100    0.0100    0.0100    0.0100    0.0100    0.0100    0.0100    0.0100
    0.0100    0.0100    0.0100    0.0100    0.0100    0.0100    0.0100    0.0100
    0.0100    0.0100    0.0100    0.0100    0.0100    0.0100    0.0100    0.0100
    0.0100    0.0100    0.0100    0.0100    0.0100    0.0100    0.0100    0.0100
    0.0100    0.0100    0.0100    0.0100    0.0100    0.0100    0.0100    0.0100
    0.0100    0.0100    0.0100    0.0100    0.0100    0.0100    0.0100    0.0100
    0.0100    0.0100    0.0100    0.0100    0.0100    0.0100    0.0100    0.0100
    0.0100    0.0100    0.0100    0.0100    0.0100    0.0100    0.0100    0.0100
    0.0100    0.0100    0.0100    0.0100    0.0100    0.0100    0.0100    0.0100
    0.0100    0.0100    0.0100    0.0100    0.0100    0.0100    0.0100    0.0100
    0.0100    0.0100    0.0100    0.0100    0.0100    0.0100    0.0100    0.0100
    0.0100    0.0100    0.0100    0.0100    0.0100    0.0100    0.0100    0.0100
    0.0100    0.0100    0.0100    0.0100    0.0100    0.0100    0.0100    0.0100
    0.0100    0.0100    0.0100    0.0100    0.0100    0.0100    0.0100    0.0100
    0.0100    0.0100    0.0100    0.0100    0.0100    0.0100    0.0100    0.0100
    0.0100    0.0100    0.0100    0.0100    0.0100    0.0100    0.0100    0.0100
    0.0100    0.0100    0.0100    0.0100    0.0100    0.0100    0.0100    0.0100
    0.0100    0.0100    0.0100    0.0100    0.0100    0.0100    0.0100    0.0100
    0.0100    0.0100    0.0100    0.0100    0.0100    0.0100    0.0100    0.0100
    0.0100    0.0100    0.0100    0.0100    0.0100    0.0100    0.0100    0.0100
    0.0100    0.0100    0.0100    0.0100    0.0100    0.0100    0.0100    0.0100
    0.0100    0.0100    0.0100    0.0100    0.0100    0.0100    0.0100    0.0100
    0.0100    0.0100    0.0100    0.0100    0.0100    0.0100    0.0100    0.0100
    0.0100    0.0100    0.0100    0.0100    0.0100    0.0100    0.0100    0.0100
    0.0100    0.0100    0.0100    0.0100    0.0100    0.0100    0.0100    0.0100
    0.0100    0.0100    0.0100    0.0100    0.0100    0.0100    0.0100    0.0100
    0.0100    0.0100    0.0100    0.0100    0.0100    0.0100    0.0100    0.0100
    0.0100    0.0100    0.0100    0.0100    0.0100    0.0100    0.0100    0.0100
    0.0100    0.0100    0.0100    0.0100    0.0100    0.0100    0.0100    0.0100
    0.0100    0.0100    0.0100    0.0100    0.0100    0.0100    0.0100    0.0100
    0.0100    0.0100    0.0100    0.0100    0.0100    0.0100    0.0100    0.0100
    0.0100    0.0100    0.0100    0.0100    0.0100    0.0100    0.0100    0.0100
    0.0100    0.0100    0.0100    0.0100    0.0100    0.0100    0.0100    0.0100
    0.0100    0.0100    0.0100    0.0100    0.0100    0.0100    0.0100    0.0100
    0.0100    0.0100    0.0100    0.0100    0.0100    0.0100    0.0100    0.0100
    0.0100    0.0100    0.0100    0.0100    0.0100    0.0100    0.0100    0.0100
    0.0100    0.0100    0.0100    0.0100    0.0100    0.0100    0.0100    0.0100
    0.0100    0.0100    0.0100    0.0100    0.0100    0.0100    0.0100    0.0100
    0.0100    0.0100    0.0100    0.0100    0.0100    0.0100    0.0100    0.0100
    0.0100    0.0100    0.0100    0.0100    0.0100    0.0100    0.0100    0.0100
    0.0100    0.0100    0.0100    0.0100    0.0100    0.0100    0.0100    0.0100
    0.0100    0.0100    0.0100    0.0100    0.0100    0.0100    0.0100    0.0100
    0.0100    0.0100    0.0100    0.0100    0.0100    0.0100    0.0100    0.0100
    0.0100    0.0100    0.0100    0.0100    0.0100    0.0100    0.0100    0.0100
    0.0100    0.0100    0.0100    0.0100    0.0100    0.0100    0.0100    0.0100
    0.0100    0.0100    0.0100    0.0100    0.0100    0.0100    0.0100    0.0100
    0.0100    0.0100    0.0100    0.0100    0.0100    0.0100    0.0100    0.0100
    0.0100    0.0100    0.0100    0.0100    0.0100    0.0100    0.0100    0.0100
    0.0100    0.0100    0.0100    0.0100    0.0100    0.0100    0.0100    0.0100
    0.0100    0.0100    0.0100    0.0100    0.0100    0.0100    0.0100    0.0100
    0.0100    0.0100    0.0100    0.0100    0.0100    0.0100    0.0100    0.0100
    0.0100    0.0100    0.0100    0.0100    0.0100    0.0100    0.0100    0.0100
    0.0100    0.0100    0.0100    0.0100    0.0100    0.0100    0.0100    0.0100
    0.0100    0.0100    0.0100    0.0100    0.0100    0.0100    0.0100    0.0100
    0.0100    0.0100    0.0100    0.0100    0.0100    0.0100    0.0100    0.0100
    0.0100    0.0100    0.0100    0.0100    0.0100    0.0100    0.0100    0.0100
    0.0100    0.0100    0.0100    0.0100    0.0100    0.0100    0.0100    0.0100
    0.0100    0.0100    0.0100    0.0100    0.0100    0.0100    0.0100    0.0100
    0.0100    0.0100    0.0100    0.0100    0.0100    0.0100    0.0100    0.0100
    0.0100    0.0100    0.0100    0.0100    0.0100    0.0100    0.0100    0.0100
   </PP_RAB>
 </PP_MESH>
  <PP_LOCAL type="real"  size=" 824" columns="4">
   -3.1534404638E+01   -3.1530437958E+01   -3.1518550717E+01   -3.1498784087E+01
   -3.1471204662E+01   -3.1435902672E+01   -3.1392989258E+01   -3.1342593342E+01
   -3.1284858277E+01   -3.1219938486E+01   -3.1147996252E+01   -3.1069198785E+01
   -3.0983715666E+01   -3.0891716696E+01   -3.0793370180E+01   -3.0688841626E+01
   -3.0578292825E+01   -3.0461881265E+01   -3.0339759837E+01   -3.0212076774E+01
   -3.0078975771E+01   -2.9940596260E+01   -2.9797073777E+01   -2.9648540408E+01
   -2.9495125274E+01   -2.9336955046E+01   -2.9174154458E+01   -2.9006846814E+01
   -2.8835154488E+01   -2.8659199379E+01   -2.8479103358E+01   -2.8294988665E+01
   -2.8106978284E+01   -2.7915196266E+01   -2.7719768032E+01   -2.7520820623E+01
   -2.7318482928E+01   -2.7112885865E+01   -2.6904162531E+01   -2.6692448321E+01
   -2.6477881011E+01   -2.6260600814E+01   -2.6040750398E+01   -2.5818474887E+01
   -2.5593921823E+01   -2.5367241116E+01   -2.5138584951E+01   -2.4908107694E+01
   -2.4675965758E+01   -2.4442317455E+01   -2.4207322834E+01   -2.3971143496E+01
   -2.3733942389E+01   -2.3495883595E+01   -2.3257132101E+01   -2.3017853555E+01
   -2.2778214008E+01   -2.2538379655E+01   -2.2298516555E+01   -2.2058790351E+01
   -2.1819365977E+01   -2.1580407364E+01   -2.1342077134E+01   -2.1104536296E+01
   -2.0867943932E+01   -2.0632456887E+01   -2.0398229446E+01   -2.0165413022E+01
   -1.9934155832E+01   -1.9704602582E+01   -1.9476894141E+01   -1.9251167222E+01
   -1.9027554067E+01   -1.8806182124E+01   -1.8587173731E+01   -1.8370645799E+01
   -1.8156709499E+01   -1.7945469947E+01   -1.7737025894E+01   -1.7531469414E+01
   -1.7328885597E+01   -1.7129352239E+01   -1.6932939541E+01   -1.6739709798E+01
   -1.6549717098E+01   -1.6363007019E+01   -1.6179616323E+01   -1.5999572656E+01
   -1.5822894243E+01   -1.5649589582E+01   -1.5479657146E+01   -1.5313085068E+01
   -1.5149850842E+01   -1.4989921011E+01   -1.4833250853E+01   -1.4679784073E+01
   -1.4529452482E+01   -1.4382175682E+01   -1.4237862479E+01   -1.4096420025E+01
   -1.3957759112E+01   -1.3821794189E+01   -1.3688443198E+01   -1.3557627423E+01
   -1.3429271339E+01   -1.3303302472E+01   -1.3179651271E+01   -1.3058250979E+01
   -1.2939037513E+01   -1.2821949350E+01   -1.2706927422E+01   -1.2593915005E+01
   -1.2482857624E+01   -1.2373702951E+01   -1.2266400719E+01   -1.2160902626E+01
   -1.2057163483E+01   -1.1955128939E+01   -1.1854845772E+01   -1.1756075261E+01
   -1.1658937284E+01   -1.1563346090E+01   -1.1469269381E+01   -1.1376671690E+01
   -1.1285518834E+01   -1.1195777847E+01   -1.1107416918E+01   -1.1020405336E+01
   -1.0934713425E+01   -1.0850312499E+01   -1.0767174799E+01   -1.0685273451E+01
   -1.0604582412E+01   -1.0525076428E+01   -1.0446730991E+01   -1.0369522294E+01
   -1.0293427197E+01   -1.0218423190E+01   -1.0144488359E+01   -1.0071601355E+01
   -9.9997413646E+00   -9.9288880841E+00   -9.8590216959E+00   -9.7901228458E+00
   -9.7221726230E+00   -9.6551525427E+00   -9.5890445294E+00   -9.5238309035E+00
   -9.4594943683E+00   -9.3960179991E+00   -9.3333852339E+00   -9.2715798649E+00
   -9.2105860314E+00   -9.1503882142E+00   -9.0909712294E+00   -9.0323202244E+00
   -8.9744206740E+00   -8.9172583759E+00   -8.8608194484E+00   -8.8050903265E+00
   -8.7500577584E+00   -8.6957088014E+00   -8.6420308176E+00   -8.5890114689E+00
   -8.5366387117E+00   -8.4849007909E+00   -8.4337862333E+00   -8.3832838404E+00
   -8.3333826804E+00   -8.2840720802E+00   -8.2353416178E+00   -8.1871811151E+00
   -8.1395806306E+00   -8.0925304526E+00   -8.0460210929E+00   -8.0000432799E+00
   -7.9545879531E+00   -7.9096462564E+00   -7.8652095328E+00   -7.8212693190E+00
   -7.7778173395E+00   -7.7348455017E+00   -7.6923458911E+00   -7.6503107660E+00
   -7.6087325531E+00   -7.5676038428E+00   -7.5269173848E+00   -7.4866660840E+00
   -7.4468429962E+00   -7.4074413242E+00   -7.3684544139E+00   -7.3298757506E+00
   -7.2916989552E+00   -7.2539177809E+00   -7.2165261097E+00   -7.1795179492E+00
   -7.1428874291E+00   -7.1066287983E+00   -7.0707364222E+00   -7.0352047791E+00
   -7.0000284579E+00   -6.9652021552E+00   -6.9307206725E+00   -6.8965789139E+00
   -6.8627718833E+00   -6.8292946822E+00   -6.7961425071E+00   -6.7633106474E+00
   -6.7307944830E+00   -6.6985894824E+00   -6.6666912002E+00   -6.6350952755E+00
   -6.6037974294E+00   -6.5727934637E+00   -6.5420792585E+00   -6.5116507704E+00
   -6.4815040311E+00   -6.4516351454E+00   -6.4220402895E+00   -6.3927157095E+00
   -6.3636577198E+00   -6.3348627015E+00   -6.3063271008E+00   -6.2780474277E+00
   -6.2500202545E+00   -6.2222422146E+00   -6.1947100007E+00   -6.1674203641E+00
   -6.1403701129E+00   -6.1135561109E+00   -6.0869752766E+00   -6.0606245818E+00
   -6.0345010505E+00   -6.0086017578E+00   -5.9829238288E+00   -5.9574644375E+00
   -5.9322208059E+00   -5.9071902028E+00   -5.8823699429E+00   -5.8577573858E+00
   -5.8333499354E+00   -5.8091450382E+00   -5.7851401834E+00   -5.7613329011E+00
   -5.7377207623E+00   -5.7143013773E+00   -5.6910723954E+00   -5.6680315041E+00
   -5.6451764280E+00   -5.6225049283E+00   -5.6000148021E+00   -5.5777038816E+00
   -5.5555700333E+00   -5.5336111576E+00   -5.5118251877E+00   -5.4902100895E+00
   -5.4687638606E+00   -5.4474845297E+00   -5.4263701560E+00   -5.4054188290E+00
   -5.3846286671E+00   -5.3639978181E+00   -5.3435244575E+00   -5.3232067890E+00
   -5.3030430433E+00   -5.2830314779E+00   -5.2631703764E+00   -5.2434580482E+00
   -5.2238928279E+00   -5.2044730749E+00   -5.1851971729E+00   -5.1660635293E+00
   -5.1470705753E+00   -5.1282167646E+00   -5.1095005738E+00   -5.0909205017E+00
   -5.0724750685E+00   -5.0541628162E+00   -5.0359823075E+00   -5.0179321258E+00
   -5.0000108748E+00   -4.9822171778E+00   -4.9645496780E+00   -4.9470070376E+00
   -4.9295879376E+00   -4.9122910775E+00   -4.8951151752E+00   -4.8780589663E+00
   -4.8611212038E+00   -4.8443006584E+00   -4.8275961173E+00   -4.8110063846E+00
   -4.7945302809E+00   -4.7781666426E+00   -4.7619143221E+00   -4.7457721874E+00
   -4.7297391217E+00   -4.7138140233E+00   -4.6979958052E+00   -4.6822833952E+00
   -4.6666757351E+00   -4.6511717808E+00   -4.6357705022E+00   -4.6204708827E+00
   -4.6052719190E+00   -4.5901726211E+00   -4.5751720118E+00   -4.5602691269E+00
   -4.5454630143E+00   -4.5307527346E+00   -4.5161373604E+00   -4.5016159760E+00
   -4.4871876779E+00   -4.4728515738E+00   -4.4586067827E+00   -4.4444524352E+00
   -4.4303876725E+00   -4.4164116469E+00   -4.4025235211E+00   -4.3887224686E+00
   -4.3750076730E+00   -4.3613783281E+00   -4.3478336379E+00   -4.3343728161E+00
   -4.3209950860E+00   -4.3076996808E+00   -4.2944858427E+00   -4.2813528236E+00
   -4.2682998841E+00   -4.2553262941E+00   -4.2424313321E+00   -4.2296142857E+00
   -4.2168744506E+00   -4.2042111313E+00   -4.1916236405E+00   -4.1791112992E+00
   -4.1666734364E+00   -4.1543093890E+00   -4.1420185019E+00   -4.1298001277E+00
   -4.1176536264E+00   -4.1055783659E+00   -4.0935737212E+00   -4.0816390746E+00
   -4.0697738157E+00   -4.0579773412E+00   -4.0462490546E+00   -4.0345883663E+00
   -4.0229946938E+00   -4.0114674608E+00   -4.0000060979E+00   -3.9886100421E+00
   -3.9772787368E+00   -3.9660116318E+00   -3.9548081829E+00   -3.9436678522E+00
   -3.9325901078E+00   -3.9215744238E+00   -3.9106202801E+00   -3.8997271624E+00
   -3.8888945622E+00   -3.8781219766E+00   -3.8674089082E+00   -3.8567548651E+00
   -3.8461593609E+00   -3.8356219144E+00   -3.8251420497E+00   -3.8147192962E+00
   -3.8043531882E+00   -3.7940432652E+00   -3.7837890717E+00   -3.7735901570E+00
   -3.7634460753E+00   -3.7533563856E+00   -3.7433206516E+00   -3.7333384416E+00
   -3.7234093287E+00   -3.7135328902E+00   -3.7037087081E+00   -3.6939363688E+00
   -3.6842154630E+00   -3.6745455857E+00   -3.6649263362E+00   -3.6553573178E+00
   -3.6458381382E+00   -3.6363684090E+00   -3.6269477458E+00   -3.6175757684E+00
   -3.6082521002E+00   -3.5989763688E+00   -3.5897482053E+00   -3.5805672448E+00
   -3.5714331260E+00   -3.5623454914E+00   -3.5533039871E+00   -3.5443082626E+00
   -3.5353579711E+00   -3.5264527694E+00   -3.5175923176E+00   -3.5087762791E+00
   -3.5000043209E+00   -3.4912761132E+00   -3.4825913296E+00   -3.4739496466E+00
   -3.4653507444E+00   -3.4567943060E+00   -3.4482800176E+00   -3.4398075686E+00
   -3.4313766513E+00   -3.4229869610E+00   -3.4146381961E+00   -3.4063300579E+00
   -3.3980622506E+00   -3.3898344811E+00   -3.3816464594E+00   -3.3734978981E+00
   -3.3653885127E+00   -3.3573180213E+00   -3.3492861447E+00   -3.3412926065E+00
   -3.3333371329E+00   -3.3254194526E+00   -3.3175392969E+00   -3.3096963997E+00
   -3.3018904974E+00   -3.2941213287E+00   -3.2863886352E+00   -3.2786921604E+00
   -3.2710316505E+00   -3.2634068540E+00   -3.2558175217E+00   -3.2482634068E+00
   -3.2407442647E+00   -3.2332598532E+00   -3.2258099321E+00   -3.2183942635E+00
   -3.2110126119E+00   -3.2036647436E+00   -3.1963504273E+00   -3.1890694337E+00
   -3.1818215355E+00   -3.1746065077E+00   -3.1674241271E+00   -3.1602741727E+00
   -3.1531564254E+00   -3.1460706680E+00   -3.1390166853E+00   -3.1319942641E+00
   -3.1250031931E+00   -3.1180432628E+00   -3.1111142655E+00   -3.1042159956E+00
   -3.0973482490E+00   -3.0905108237E+00   -3.0837035192E+00   -3.0769261370E+00
   -3.0701784802E+00   -3.0634603536E+00   -3.0567715640E+00   -3.0501119194E+00
   -3.0434812298E+00   -3.0368793069E+00   -3.0303059637E+00   -3.0237610152E+00
   -3.0172442777E+00   -3.0107555692E+00   -3.0042947093E+00   -2.9978615190E+00
   -2.9914558211E+00   -2.9850774397E+00   -2.9787262003E+00   -2.9724019301E+00
   -2.9661044578E+00   -2.9598336133E+00   -2.9535892280E+00   -2.9473711350E+00
   -2.9411791685E+00   -2.9350131641E+00   -2.9288729589E+00   -2.9227583914E+00
   -2.9166693013E+00   -2.9106055296E+00   -2.9045669189E+00   -2.8985533129E+00
   -2.8925645565E+00   -2.8866004960E+00   -2.8806609790E+00   -2.8747458544E+00
   -2.8688549720E+00   -2.8629881833E+00   -2.8571453408E+00   -2.8513262980E+00
   -2.8455309099E+00   -2.8397590325E+00   -2.8340105231E+00   -2.8282852401E+00
   -2.8225830429E+00   -2.8169037922E+00   -2.8112473497E+00   -2.8056135784E+00
   -2.8000023423E+00   -2.7944135063E+00   -2.7888469366E+00   -2.7833025004E+00
   -2.7777800660E+00   -2.7722795027E+00   -2.7668006807E+00   -2.7613434715E+00
   -2.7559077474E+00   -2.7504933818E+00   -2.7451002490E+00   -2.7397282244E+00
   -2.7343771843E+00   -2.7290470059E+00   -2.7237375677E+00   -2.7184487486E+00
   -2.7131804288E+00   -2.7079324894E+00   -2.7027048124E+00   -2.6974972806E+00
   -2.6923097777E+00   -2.6871421886E+00   -2.6819943987E+00   -2.6768662944E+00
   -2.6717577630E+00   -2.6666686928E+00   -2.6615989727E+00   -2.6565484925E+00
   -2.6515171429E+00   -2.6465048155E+00   -2.6415114026E+00   -2.6365367973E+00
   -2.6315808935E+00   -2.6266435860E+00   -2.6217247704E+00   -2.6168243428E+00