<UPF version="2.0.1">
  <PP_INFO>

 This pseudopotential file has been produced using the code
 ONCVPSP  (Optimized Norm-Conservinng Vanderbilt PSeudopotential)
 scalar-relativistic version 4.0.1 06/04/2019 by D. R. Hamann
 The code is available through a link at URL www.mat-simresearch.com.
 Documentation with the package provides a full discription of the
 input data below.


 While it is not required under the terms of the GNU GPL, it is
 suggested that you cite D. R. Hamann, Phys. Rev. B 88, 085117 (2013)
 in any publication using these pseudopotentials.

    <PP_INPUTFILE>
# ATOM AND REFERENCE CONFIGURATION
# atsym  z   nc   nv     iexc    psfile
  Ne 10.00    1    2       3      upf
#
#   n    l    f        energy (Ha)
    1    0    2.00
    2    0    2.00
    2    1    6.00
#
# PSEUDOPOTENTIAL AND OPTIMIZATION
# lmax
    1
#
#   l,   rc,      ep,       ncon, nbas, qcut
    0   2.61642   0.00000    5    8   7.96858
    1   2.63783   0.00000    5    8   6.60628
#
# LOCAL POTENTIAL
# lloc, lpopt,  rc(5),   dvloc0
    4    5   2.61477      0.00000
#
# VANDERBILT-KLEINMAN-BYLANDER PROJECTORs
# l, nproj, debl
    0    2   1.54861
    1    2   1.11000
#
# MODEL CORE CHARGE
# icmod, fcfact, rcfact
    0   0.00000   0.00000
#
# LOG DERIVATIVE ANALYSIS
# epsh1, epsh2, depsh
   -5.00    3.00    0.02
#
# OUTPUT GRID
# rlmax, drl
    6.00    0.01
#
# TEST CONFIGURATIONS
# ncnf
    0
# nvcnf
#   n    l    f
    </PP_INPUTFILE>
  </PP_INFO>
  <!--                               -->
  <!-- END OF HUMAN READABLE SECTION -->
  <!--                               -->
    <PP_HEADER
       generated="Generated using ONCVPSP code by D. R. Hamann"
       author="anonymous"
       date="200312"
       comment=""
       element="Ne"
       pseudo_type="NC"
       relativistic="scalar"
       is_ultrasoft="F"
       is_paw="F"
       is_coulomb="F"
       has_so="F"
       has_wfc="F"
       has_gipaw="F"
       core_correction="F"
       functional="PZ"
       z_valence="    8.00"
       total_psenergy="  -6.17013024570E+01"
       rho_cutoff="   7.49000000000E+00"
       l_max="1"
       l_local="-1"
       mesh_size="   750"
       number_of_wfc="2"
       number_of_proj="4"/>
 <PP_MESH>
   <PP_R type="real"  size=" 750" columns="8">
    0.0000    0.0100    0.0200    0.0300    0.0400    0.0500    0.0600    0.0700
    0.0800    0.0900    0.1000    0.1100    0.1200    0.1300    0.1400    0.1500
    0.1600    0.1700    0.1800    0.1900    0.2000    0.2100    0.2200    0.2300
    0.2400    0.2500    0.2600    0.2700    0.2800    0.2900    0.3000    0.3100
    0.3200    0.3300    0.3400    0.3500    0.3600    0.3700    0.3800    0.3900
    0.4000    0.4100    0.4200    0.4300    0.4400    0.4500    0.4600    0.4700
    0.4800    0.4900    0.5000    0.5100    0.5200    0.5300    0.5400    0.5500
    0.5600    0.5700    0.5800    0.5900    0.6000    0.6100    0.6200    0.6300
    0.6400    0.6500    0.6600    0.6700    0.6800    0.6900    0.7000    0.7100
    0.7200    0.7300    0.7400    0.7500    0.7600    0.7700    0.7800    0.7900
    0.8000    0.8100    0.8200    0.8300    0.8400    0.8500    0.8600    0.8700
    0.8800    0.8900    0.9000    0.9100    0.9200    0.9300    0.9400    0.9500
    0.9600    0.9700    0.9800    0.9900    1.0000    1.0100    1.0200    1.0300
    1.0400    1.0500    1.0600    1.0700    1.0800    1.0900    1.1000    1.1100
    1.1200    1.1300    1.1400    1.1500    1.1600    1.1700    1.1800    1.1900
    1.2000    1.2100    1.2200    1.2300    1.2400    1.2500    1.2600    1.2700
    1.2800    1.2900    1.3000    1.3100    1.3200    1.3300    1.3400    1.3500
    1.3600    1.3700    1.3800    1.3900    1.4000    1.4100    1.4200    1.4300
    1.4400    1.4500    1.4600    1.4700    1.4800    1.4900    1.5000    1.5100
    1.5200    1.5300    1.5400    1.5500    1.5600    1.5700    1.5800    1.5900
    1.6000    1.6100    1.6200    1.6300    1.6400    1.6500    1.6600    1.6700
    1.6800    1.6900    1.7000    1.7100    1.7200    1.7300    1.7400    1.7500
    1.7600    1.7700    1.7800    1.7900    1.8000    1.8100    1.8200    1.8300
    1.8400    1.8500    1.8600    1.8700    1.8800    1.8900    1.9000    1.9100
    1.9200    1.9300    1.9400    1.9500    1.9600    1.9700    1.9800    1.9900
    2.0000    2.0100    2.0200    2.0300    2.0400    2.0500    2.0600    2.0700
    2.0800    2.0900    2.1000    2.1100    2.1200    2.1300    2.1400    2.1500
    2.1600    2.1700    2.1800    2.1900    2.2000    2.2100    2.2200    2.2300
    2.2400    2.2500    2.2600    2.2700    2.2800    2.2900    2.3000    2.3100
    2.3200    2.3300    2.3400    2.3500    2.3600    2.3700    2.3800    2.3900
    2.4000    2.4100    2.4200    2.4300    2.4400    2.4500    2.4600    2.4700
    2.4800    2.4900    2.5000    2.5100    2.5200    2.5300    2.5400    2.5500
    2.5600    2.5700    2.5800    2.5900    2.6000    2.6100    2.6200    2.6300
    2.6400    2.6500    2.6600    2.6700    2.6800    2.6900    2.7000    2.7100
    2.7200    2.7300    2.7400    2.7500    2.7600    2.7700    2.7800    2.7900
    2.8000    2.8100    2.8200    2.8300    2.8400    2.8500    2.8600    2.8700
    2.8800    2.8900    2.9000    2.9100    2.9200    2.9300    2.9400    2.9500
    2.9600    2.9700    2.9800    2.9900    3.0000    3.0100    3.0200    3.0300
    3.0400    3.0500    3.0600    3.0700    3.0800    3.0900    3.1000    3.1100
    3.1200    3.1300    3.1400    3.1500    3.1600    3.1700    3.1800    3.1900
    3.2000    3.2100    3.2200    3.2300    3.2400    3.2500    3.2600    3.2700
    3.2800    3.2900    3.3000    3.3100    3.3200    3.3300    3.3400    3.3500
    3.3600    3.3700    3.3800    3.3900    3.4000    3.4100    3.4200    3.4300
    3.4400    3.4500    3.4600    3.4700    3.4800    3.4900    3.5000    3.5100
    3.5200    3.5300    3.5400    3.5500    3.5600    3.5700    3.5800    3.5900
    3.6000    3.6100    3.6200    3.6300    3.6400    3.6500    3.6600    3.6700
    3.6800    3.6900    3.7000    3.7100    3.7200    3.7300    3.7400    3.7500
    3.7600    3.7700    3.7800    3.7900    3.8000    3.8100    3.8200    3.8300
    3.8400    3.8500    3.8600    3.8700    3.8800    3.8900    3.9000    3.9100
    3.9200    3.9300    3.9400    3.9500    3.9600    3.9700    3.9800    3.9900
    4.0000    4.0100    4.0200    4.0300    4.0400    4.0500    4.0600    4.0700
    4.0800    4.0900    4.1000    4.1100    4.1200    4.1300    4.1400    4.1500
    4.1600    4.1700    4.1800    4.1900    4.2000    4.2100    4.2200    4.2300
    4.2400    4.2500    4.2600    4.2700    4.2800    4.2900    4.3000    4.3100
    4.3200    4.3300    4.3400    4.3500    4.3600    4.3700    4.3800    4.3900
    4.4000    4.4100    4.4200    4.4300    4.4400    4.4500    4.4600    4.4700
    4.4800    4.4900    4.5000    4.5100    4.5200    4.5300    4.5400    4.5500
    4.5600    4.5700    4.5800    4.5900    4.6000    4.6100    4.6200    4.6300
    4.6400    4.6500    4.6600    4.6700    4.6800    4.6900    4.7000    4.7100
    4.7200    4.7300    4.7400    4.7500    4.7600    4.7700    4.7800    4.7900
    4.8000    4.8100    4.8200    4.8300    4.8400    4.8500    4.8600    4.8700
    4.8800    4.8900    4.9000    4.9100    4.9200    4.9300    4.9400    4.9500
    4.9600    4.9700    4.9800    4.9900    5.0000    5.0100    5.0200    5.0300
    5.0400    5.0500    5.0600    5.0700    5.0800    5.0900    5.1000    5.1100
    5.1200    5.1300    5.1400    5.1500    5.1600    5.1700    5.1800    5.1900
    5.2000    5.2100    5.2200    5.2300    5.2400    5.2500    5.2600    5.2700
    5.2800    5.2900    5.3000    5.3100    5.3200    5.3300    5.3400    5.3500
    5.3600    5.3700    5.3800    5.3900    5.4000    5.4100    5.4200    5.4300
    5.4400    5.4500    5.4600    5.4700    5.4800    5.4900    5.5000    5.5100
    5.5200    5.5300    5.5400    5.5500    5.5600    5.5700    5.5800    5.5900
    5.6000    5.6100    5.6200    5.6300    5.6400    5.6500    5.6600    5.6700
    5.6800    5.6900    5.7000    5.7100    5.7200    5.7300    5.7400    5.7500
    5.7600    5.7700    5.7800    5.7900    5.8000    5.8100    5.8200    5.8300
    5.8400    5.8500    5.8600    5.8700    5.8800    5.8900    5.9000    5.9100
    5.9200    5.9300    5.9400    5.9500    5.9600    5.9700    5.9800    5.9900
    6.0000    6.0100    6.0200    6.0300    6.0400    6.0500    6.0600    6.0700
    6.0800    6.0900    6.1000    6.1100    6.1200    6.1300    6.1400    6.1500
    6.1600    6.1700    6.1800    6.1900    6.2000    6.2100    6.2200    6.2300
    6.2400    6.2500    6.2600    6.2700    6.2800    6.2900    6.3000    6.3100
    6.3200    6.3300    6.3400    6.3500    6.3600    6.3700    6.3800    6.3900
    6.4000    6.4100    6.4200    6.4300    6.4400    6.4500    6.4600    6.4700
    6.4800    6.4900    6.5000    6.5100    6.5200    6.5300    6.5400    6.5500
    6.5600    6.5700    6.5800    6.5900    6.6000    6.6100    6.6200    6.6300
    6.6400    6.6500    6.6600    6.6700    6.6800    6.6900    6.7000    6.7100
    6.7200    6.7300    6.7400    6.7500    6.7600    6.7700    6.7800    6.7900
    6.8000    6.8100    6.8200    6.8300    6.8400    6.8500    6.8600    6.8700
    6.8800    6.8900    6.9000    6.9100    6.9200    6.9300    6.9400    6.9500
    6.9600    6.9700    6.9800    6.9900    7.0000    7.0100    7.0200    7.0300
    7.0400    7.0500    7.0600    7.0700    7.0800    7.0900    7.1000    7.1100
    7.1200    7.1300    7.1400    7.1500    7.1600    7.1700    7.1800    7.1900
    7.2000    7.2100    7.2200    7.2300    7.2400    7.2500    7.2600    7.2700
    7.2800    7.2900    7.3000    7.3100    7.3200    7.3300    7.3400    7.3500
    7.3600    7.3700    7.3800    7.3900    7.4000    7.4100    7.4200    7.4300
    7.4400    7.4500    7.4600    7.4700    7.4800    7.4900
   </PP_R>
   <PP_RAB type="real"  size=" 750" columns="8">
    0.0100    0.0100    0.0100    0.0100    0.0100    0.0100    0.0100    0.0100
    0.0100    0.0100    0.0100    0.0100    0.0100    0.0100    0.0100    0.0100
    0.0100    0.0100    0.0100    0.0100    0.0100    0.0100    0.0100    0.0100
    0.0100    0.0100    0.0100    0.0100    0.0100    0.0100    0.0100    0.0100
    0.0100    0.0100    0.0100    0.0100    0.0100    0.0100    0.0100    0.0100
    0.0100    0.0100    0.0100    0.0100    0.0100    0.0100    0.0100    0.0100
    0.0100    0.0100    0.0100    0.0100    0.0100    0.0100    0.0100    0.0100
    0.0100    0.0100    0.0100    0.0100    0.0100    0.0100    0.0100    0.0100
    0.0100    0.0100    0.0100    0.0100    0.0100    0.0100    0.0100    0.0100
    0.0100    0.0100    0.0100    0.0100    0.0100    0.0100    0.0100    0.0100
    0.0100    0.0100    0.0100    0.0100    0.0100    0.0100    0.0100    0.0100
    0.0100    0.0100    0.0100    0.0100    0.0100    0.0100    0.0100    0.0100
    0.0100    0.0100    0.0100    0.0100    0.0100    0.0100    0.0100    0.0100
    0.0100    0.0100    0.0100    0.0100    0.0100    0.0100    0.0100    0.0100
    0.0100    0.0100    0.0100    0.0100    0.0100    0.0100    0.0100    0.0100
    0.0100    0.0100    0.0100    0.0100    0.0100    0.0100    0.0100    0.0100
    0.0100    0.0100    0.0100    0.0100    0.0100    0.0100    0.0100    0.0100
    0.0100    0.0100    0.0100    0.0100    0.0100    0.0100    0.0100    0.0100
    0.0100    0.0100    0.0100    0.0100    0.0100    0.0100    0.0100    0.0100
    0.0100    0.0100    0.0100    0.0100    0.0100    0.0100    0.0100    0.0100
    0.0100    0.0100    0.0100    0.0100    0.0100    0.0100    0.0100    0.0100
    0.0100    0.0100    0.0100    0.0100    0.0100    0.0100    0.0100    0.0100
    0.0100    0.0100    0.0100    0.0100    0.0100    0.0100    0.0100    0.0100
    0.0100    0.0100    0.0100    0.0100    0.0100    0.0100    0.0100    0.0100
    0.0100    0.0100    0.0100    0.0100    0.0100    0.0100    0.0100    0.0100
    0.0100    0.0100    0.0100    0.0100    0.0100    0.0100    0.0100    0.0100
    0.0100    0.0100    0.0100    0.0100    0.0100    0.0100    0.0100    0.0100
    0.0100    0.0100    0.0100    0.0100    0.0100    0.0100    0.0100    0.0100
    0.0100    0.0100    0.0100    0.0100    0.0100    0.0100    0.0100    0.0100
    0.0100    0.0100    0.0100    0.0100    0.0100    0.0100    0.0100    0.0100
    0.0100    0.0100    0.0100    0.0100    0.0100    0.0100    0.0100    0.0100
    0.0100    0.0100    0.0100    0.0100    0.0100    0.0100    0.0100    0.0100
    0.0100    0.0100    0.0100    0.0100    0.0100    0.0100    0.0100    0.0100
    0.0100    0.0100    0.0100    0.0100    0.0100    0.0100    0.0100    0.0100
    0.0100    0.0100    0.0100    0.0100    0.0100    0.0100    0.0100    0.0100
    0.0100    0.0100    0.0100    0.0100    0.0100    0.0100    0.0100    0.0100
    0.0100    0.0100    0.0100    0.0100    0.0100    0.0100    0.0100    0.0100
    0.0100    0.0100    0.0100    0.0100    0.0100    0.0100    0.0100    0.0100
    0.0100    0.0100    0.0100    0.0100    0.0100    0.0100    0.0100    0.0100
    0.0100    0.0100    0.0100    0.0100    0.0100    0.0100    0.0100    0.0100
    0.0100    0.0100    0.0100    0.0100    0.0100    0.0100    0.0100    0.0100
    0.0100    0.0100    0.0100    0.0100    0.0100    0.0100    0.0100    0.0100
    0.0100    0.0100    0.0100    0.0100    0.0100    0.0100    0.0100    0.0100
    0.0100    0.0100    0.0100    0.0100    0.0100    0.0100    0.0100    0.0100
    0.0100    0.0100    0.0100    0.0100    0.0100    0.0100    0.0100    0.0100
    0.0100    0.0100    0.0100    0.0100    0.0100    0.0100    0.0100    0.0100
    0.0100    0.0100    0.0100    0.0100    0.0100    0.0100    0.0100    0.0100
    0.0100    0.0100    0.0100    0.0100    0.0100    0.0100    0.0100    0.0100
    0.0100    0.0100    0.0100    0.0100    0.0100    0.0100    0.0100    0.0100
    0.0100    0.0100    0.0100    0.0100    0.0100    0.0100    0.0100    0.0100
    0.0100    0.0100    0.0100    0.0100    0.0100    0.0100    0.0100    0.0100
    0.0100    0.0100    0.0100    0.0100    0.0100    0.0100    0.0100    0.0100
    0.0100    0.0100    0.0100    0.0100    0.0100    0.0100    0.0100    0.0100
    0.0100    0.0100    0.0100    0.0100    0.0100    0.0100    0.0100    0.0100
    0.0100    0.0100    0.0100    0.0100    0.0100    0.0100    0.0100    0.0100
    0.0100    0.0100    0.0100    0.0100    0.0100    0.0100    0.0100    0.0100
    0.0100    0.0100    0.0100    0.0100    0.0100    0.0100    0.0100    0.0100
    0.0100    0.0100    0.0100    0.0100    0.0100    0.0100    0.0100    0.0100
    0.0100    0.0100    0.0100    0.0100    0.0100    0.0100    0.0100    0.0100
    0.0100    0.0100    0.0100    0.0100    0.0100    0.0100    0.0100    0.0100
    0.0100    0.0100    0.0100    0.0100    0.0100    0.0100    0.0100    0.0100
    0.0100    0.0100    0.0100    0.0100    0.0100    0.0100    0.0100    0.0100
    0.0100    0.0100    0.0100    0.0100    0.0100    0.0100    0.0100    0.0100
    0.0100    0.0100    0.0100    0.0100    0.0100    0.0100    0.0100    0.0100
    0.0100    0.0100    0.0100    0.0100    0.0100    0.0100    0.0100    0.0100
    0.0100    0.0100    0.0100    0.0100    0.0100    0.0100    0.0100    0.0100
    0.0100    0.0100    0.0100    0.0100    0.0100    0.0100    0.0100    0.0100
    0.0100    0.0100    0.0100    0.0100    0.0100    0.0100    0.0100    0.0100
    0.0100    0.0100    0.0100    0.0100    0.0100    0.0100    0.0100    0.0100
    0.0100    0.0100    0.0100    0.0100    0.0100    0.0100    0.0100    0.0100
    0.0100    0.0100    0.0100    0.0100    0.0100    0.0100    0.0100    0.0100
    0.0100    0.0100    0.0100    0.0100    0.0100    0.0100    0.0100    0.0100
    0.0100    0.0100    0.0100    0.0100    0.0100    0.0100    0.0100    0.0100
    0.0100    0.0100    0.0100    0.0100    0.0100    0.0100    0.0100    0.0100
    0.0100    0.0100    0.0100    0.0100    0.0100    0.0100    0.0100    0.0100
    0.0100    0.0100    0.0100    0.0100    0.0100    0.0100    0.0100    0.0100
    0.0100    0.0100    0.0100    0.0100    0.0100    0.0100    0.0100    0.0100
    0.0100    0.0100    0.0100    0.0100    0.0100    0.0100    0.0100    0.0100
    0.0100    0.0100    0.0100    0.0100    0.0100    0.0100    0.0100    0.0100
    0.0100    0.0100    0.0100    0.0100    0.0100    0.0100    0.0100    0.0100
    0.0100    0.0100    0.0100    0.0100    0.0100    0.0100    0.0100    0.0100
    0.0100    0.0100    0.0100    0.0100    0.0100    0.0100    0.0100    0.0100
    0.0100    0.0100    0.0100    0.0100    0.0100    0.0100    0.0100    0.0100
    0.0100    0.0100    0.0100    0.0100    0.0100    0.0100    0.0100    0.0100
    0.0100    0.0100    0.0100    0.0100    0.0100    0.0100    0.0100    0.0100
    0.0100    0.0100    0.0100    0.0100    0.0100    0.0100    0.0100    0.0100
    0.0100    0.0100    0.0100    0.0100    0.0100    0.0100    0.0100    0.0100
    0.0100    0.0100    0.0100    0.0100    0.0100    0.0100    0.0100    0.0100
    0.0100    0.0100    0.0100    0.0100    0.0100    0.0100    0.0100    0.0100
    0.0100    0.0100    0.0100    0.0100    0.0100    0.0100    0.0100    0.0100
    0.0100    0.0100    0.0100    0.0100    0.0100    0.0100    0.0100    0.0100
    0.0100    0.0100    0.0100    0.0100    0.0100    0.0100    0.0100    0.0100
    0.0100    0.0100    0.0100    0.0100    0.0100    0.0100    0.0100    0.0100
    0.0100    0.0100    0.0100    0.0100    0.0100    0.0100
   </PP_RAB>
 </PP_MESH>
  <PP_LOCAL type="real"  size=" 750" columns="4">
   -1.7895001738E+01   -1.7894392205E+01   -1.7892578738E+01   -1.7889558289E+01
   -1.7885333802E+01   -1.7879909350E+01   -1.7873290091E+01   -1.7865482206E+01
   -1.7856492825E+01   -1.7846329950E+01   -1.7835002371E+01   -1.7822519569E+01
   -1.7808891622E+01   -1.7794129111E+01   -1.7778243016E+01   -1.7761244624E+01
   -1.7743145435E+01   -1.7723957073E+01   -1.7703691201E+01   -1.7682359449E+01
   -1.7659973340E+01   -1.7636544230E+01   -1.7612083258E+01   -1.7586601299E+01
   -1.7560108928E+01   -1.7532616396E+01   -1.7504133610E+01   -1.7474670121E+01
   -1.7444235124E+01   -1.7412837461E+01   -1.7380485632E+01   -1.7347187814E+01
   -1.7312951880E+01   -1.7277785428E+01   -1.7241695816E+01   -1.7204690189E+01
   -1.7166775525E+01   -1.7127958669E+01   -1.7088246379E+01   -1.7047645369E+01
   -1.7006162347E+01   -1.6963804068E+01   -1.6920577371E+01   -1.6876489223E+01
   -1.6831546766E+01   -1.6785757352E+01   -1.6739128586E+01   -1.6691668359E+01
   -1.6643384892E+01   -1.6594286757E+01   -1.6544382920E+01   -1.6493682757E+01
   -1.6442196089E+01   -1.6389933198E+01   -1.6336904850E+01   -1.6283122309E+01
   -1.6228597353E+01   -1.6173342282E+01   -1.6117369927E+01   -1.6060693655E+01
   -1.6003327370E+01   -1.5945285512E+01   -1.5886583055E+01   -1.5827235496E+01
   -1.5767258851E+01   -1.5706669643E+01   -1.5645484882E+01   -1.5583722058E+01
   -1.5521399115E+01   -1.5458534437E+01   -1.5395146818E+01   -1.5331255448E+01
   -1.5266879879E+01   -1.5202040003E+01   -1.5136756023E+01   -1.5071048423E+01
   -1.5004937935E+01   -1.4938445517E+01   -1.4871592309E+01   -1.4804399610E+01
   -1.4736888841E+01   -1.4669081515E+01   -1.4600999198E+01   -1.4532663483E+01
   -1.4464095952E+01   -1.4395318145E+01   -1.4326351528E+01   -1.4257217460E+01
   -1.4187937163E+01   -1.4118531688E+01   -1.4049021890E+01   -1.3979428397E+01
   -1.3909771580E+01   -1.3840071528E+01   -1.3770348022E+01   -1.3700620512E+01
   -1.3630908088E+01   -1.3561229464E+01   -1.3491602953E+01   -1.3422046452E+01
   -1.3352577417E+01   -1.3283212854E+01   -1.3213969297E+01   -1.3144862799E+01
   -1.3075908917E+01   -1.3007122704E+01   -1.2938518695E+01   -1.2870110903E+01
   -1.2801912810E+01   -1.2733937366E+01   -1.2666196977E+01   -1.2598703511E+01
   -1.2531468293E+01   -1.2464502106E+01   -1.2397815191E+01   -1.2331417251E+01
   -1.2265317455E+01   -1.2199524443E+01   -1.2134046329E+01   -1.2068890712E+01
   -1.2004064682E+01   -1.1939574830E+01   -1.1875427253E+01   -1.1811627572E+01
   -1.1748180936E+01   -1.1685092040E+01   -1.1622365131E+01   -1.1560004027E+01
   -1.1498012224E+01   -1.1436393649E+01   -1.1375126953E+01   -1.1314183981E+01
   -1.1253641443E+01   -1.1193478578E+01   -1.1133699110E+01   -1.1074303876E+01
   -1.1015293505E+01   -1.0956668340E+01   -1.0898428453E+01   -1.0840573664E+01
   -1.0783103549E+01   -1.0726017463E+01   -1.0669314548E+01   -1.0612993753E+01
   -1.0557053844E+01   -1.0501493422E+01   -1.0446310934E+01   -1.0391504685E+01
   -1.0337072858E+01   -1.0283013517E+01   -1.0229324627E+01   -1.0176004063E+01
   -1.0123049620E+01   -1.0070459027E+01   -1.0018229952E+01   -9.9663600208E+00
   -9.9148468175E+00   -9.8636878988E+00   -9.8128808009E+00   -9.7624230475E+00
   -9.7123121576E+00   -9.6625456520E+00   -9.6131210604E+00   -9.5640359271E+00
   -9.5152878165E+00   -9.4668743182E+00   -9.4187930516E+00   -9.3710416700E+00
   -9.3236178644E+00   -9.2765193664E+00   -9.2297439512E+00   -9.1832894401E+00
   -9.1371537022E+00   -9.0913346562E+00   -9.0458302715E+00   -9.0006385693E+00
   -8.9557576227E+00   -8.9111855574E+00   -8.8669205513E+00   -8.8229608341E+00
   -8.7793046870E+00   -8.7359504413E+00   -8.6928964775E+00   -8.6501412243E+00
   -8.6076831563E+00   -8.5655207930E+00   -8.5236526966E+00   -8.4820774697E+00
   -8.4407937536E+00   -8.3998002260E+00   -8.3590955982E+00   -8.3186786131E+00
   -8.2785480423E+00   -8.2387026840E+00   -8.1991413599E+00   -8.1598629130E+00
   -8.1208662048E+00   -8.0821501126E+00   -8.0437135269E+00   -8.0055553490E+00
   -7.9676744885E+00   -7.9300698603E+00   -7.8927403829E+00   -7.8556849753E+00
   -7.8189025556E+00   -7.7823920376E+00   -7.7461523300E+00   -7.7101823332E+00
   -7.6744809383E+00   -7.6390470247E+00   -7.6038794585E+00   -7.5689770911E+00
   -7.5343387575E+00   -7.4999632751E+00   -7.4658494423E+00   -7.4319960374E+00
   -7.3984018176E+00   -7.3650655181E+00   -7.3319858513E+00   -7.2991615062E+00
   -7.2665911478E+00   -7.2342734165E+00   -7.2022069280E+00   -7.1703902729E+00
   -7.1388220167E+00   -7.1075006995E+00   -7.0764248367E+00   -7.0455929180E+00
   -7.0150034090E+00   -6.9846547505E+00   -6.9545453590E+00   -6.9246736278E+00
   -6.8950379269E+00   -6.8656366035E+00   -6.8364679833E+00   -6.8075303703E+00
   -6.7788220483E+00   -6.7503412811E+00   -6.7220863134E+00   -6.6940553717E+00
   -6.6662466653E+00   -6.6386583866E+00   -6.6112887123E+00   -6.5841358041E+00
   -6.5571978097E+00   -6.5304728634E+00   -6.5039590869E+00   -6.4776545904E+00
   -6.4515574729E+00   -6.4256658231E+00   -6.3999777202E+00   -6.3744912345E+00
   -6.3492044278E+00   -6.3241153541E+00   -6.2992220602E+00   -6.2745225859E+00
   -6.2500149645E+00   -6.2256972231E+00   -6.2015673829E+00   -6.1776234592E+00
   -6.1538634617E+00   -6.1302853946E+00   -6.1068872568E+00   -6.0836670385E+00
   -6.0606227328E+00   -6.0377523481E+00   -6.0150539219E+00   -5.9925255228E+00
   -5.9701652473E+00   -5.9479712204E+00   -5.9259415949E+00   -5.9040745508E+00
   -5.8823682950E+00   -5.8608210605E+00   -5.8394311061E+00   -5.8181967162E+00
   -5.7971161996E+00   -5.7761878900E+00   -5.7554101448E+00   -5.7347813450E+00
   -5.7142998947E+00   -5.6939642207E+00   -5.6737727724E+00   -5.6537240207E+00
   -5.6338164582E+00   -5.6140485989E+00   -5.5944189771E+00   -5.5749261480E+00
   -5.5555686865E+00   -5.5363451875E+00   -5.5172542652E+00   -5.4982945527E+00
   -5.4794647020E+00   -5.4607633834E+00   -5.4421892854E+00   -5.4237411142E+00
   -5.4054175935E+00   -5.3872174642E+00   -5.3691394841E+00   -5.3511824275E+00
   -5.3333450853E+00   -5.3156262643E+00   -5.2980247871E+00   -5.2805394918E+00
   -5.2631692320E+00   -5.2459128761E+00   -5.2287693074E+00   -5.2117374238E+00
   -5.1948161373E+00   -5.1780043743E+00   -5.1613010748E+00   -5.1447051925E+00
   -5.1282156946E+00   -5.1118315614E+00   -5.0955517862E+00   -5.0793753752E+00
   -5.0633013469E+00   -5.0473287326E+00   -5.0314565754E+00   -5.0156839307E+00
   -5.0000098653E+00   -4.9844334582E+00   -4.9689537993E+00   -4.9535699902E+00
   -4.9382811432E+00   -4.9230863819E+00   -4.9079848403E+00   -4.8929756633E+00
   -4.8780580061E+00   -4.8632310340E+00   -4.8484939228E+00   -4.8338458580E+00
   -4.8192860348E+00   -4.8048136584E+00   -4.7904279433E+00   -4.7761281133E+00
   -4.7619134018E+00   -4.7477830509E+00   -4.7337363118E+00   -4.7197724447E+00
   -4.7058907183E+00   -4.6920904099E+00   -4.6783708054E+00   -4.6647311989E+00
   -4.6511708928E+00   -4.6376891973E+00   -4.6242854311E+00   -4.6109589203E+00
   -4.5977089989E+00   -4.5845350085E+00   -4.5714362984E+00   -4.5584122250E+00
   -4.5454621523E+00   -4.5325854514E+00   -4.5197815005E+00   -4.5070496847E+00
   -4.4943893963E+00   -4.4818000341E+00   -4.4692810037E+00   -4.4568317175E+00
   -4.4444515942E+00   -4.4321400591E+00   -4.4198965437E+00   -4.4077204860E+00
   -4.3956113299E+00   -4.3835685255E+00   -4.3715915290E+00   -4.3596798025E+00
   -4.3478328138E+00   -4.3360500366E+00   -4.3243309504E+00   -4.3126750400E+00
   -4.3010817959E+00   -4.2895507143E+00   -4.2780812963E+00   -4.2666730488E+00
   -4.2553254836E+00   -4.2440381179E+00   -4.2328104739E+00   -4.2216420788E+00
   -4.2105324650E+00   -4.1994811695E+00   -4.1884877344E+00   -4.1775517064E+00
   -4.1666726370E+00   -4.1558500825E+00   -4.1450836035E+00   -4.1343727654E+00
   -4.1237171380E+00   -4.1131162954E+00   -4.1025698163E+00   -4.0920772835E+00
   -4.0816382842E+00   -4.0712524098E+00   -4.0609192556E+00   -4.0506384214E+00
   -4.0404095107E+00   -4.0302321312E+00   -4.0201058945E+00   -4.0100304159E+00
   -4.0000053149E+00   -3.9900302146E+00   -3.9801047417E+00   -3.9702285269E+00
   -3.9604012044E+00   -3.9506224120E+00   -3.9408917911E+00   -3.9312089866E+00
   -3.9215736471E+00   -3.9119854242E+00   -3.9024439732E+00   -3.8929489528E+00
   -3.8835000248E+00   -3.8740968545E+00   -3.8647391103E+00   -3.8554264637E+00
   -3.8461585895E+00   -3.8369351658E+00   -3.8277558733E+00   -3.8186203962E+00
   -3.8095284215E+00   -3.8004796391E+00   -3.7914737421E+00   -3.7825104263E+00
   -3.7735893904E+00   -3.7647103359E+00   -3.7558729672E+00   -3.7470769915E+00
   -3.7383221185E+00   -3.7296080609E+00   -3.7209345339E+00   -3.7123012554E+00
   -3.7037079459E+00   -3.6951543284E+00   -3.6866401286E+00   -3.6781650746E+00
   -3.6697288972E+00   -3.6613313293E+00   -3.6529721066E+00   -3.6446509670E+00
   -3.6363676508E+00   -3.6281219008E+00   -3.6199134620E+00   -3.6117420816E+00
   -3.6036075094E+00   -3.5955094971E+00   -3.5874477989E+00   -3.5794221710E+00
   -3.5714323719E+00   -3.5634781621E+00   -3.5555593045E+00   -3.5476755639E+00
   -3.5398267071E+00   -3.5320125032E+00   -3.5242327232E+00   -3.5164871401E+00
   -3.5087755290E+00   -3.5010976667E+00   -3.4934533324E+00   -3.4858423067E+00
   -3.4782643725E+00   -3.4707193145E+00   -3.4632069192E+00   -3.4557269748E+00
   -3.4482792717E+00   -3.4408636018E+00   -3.4334797588E+00   -3.4261275384E+00
   -3.4188067378E+00   -3.4115171560E+00   -3.4042585938E+00   -3.3970308536E+00
   -3.3898337395E+00   -3.3826670572E+00   -3.3755306142E+00   -3.3684242193E+00
   -3.3613476834E+00   -3.3543008185E+00   -3.3472834385E+00   -3.3402953587E+00
   -3.3333363959E+00   -3.3264063686E+00   -3.3195050967E+00   -3.3126324015E+00
   -3.3057881059E+00   -3.2989720343E+00   -3.2921840125E+00   -3.2854238676E+00
   -3.2786914282E+00   -3.2719865245E+00   -3.2653089878E+00   -3.2586586508E+00
   -3.2520353479E+00   -3.2454389143E+00   -3.2388691870E+00   -3.2323260042E+00
   -3.2258092052E+00   -3.2193186307E+00   -3.2128541230E+00   -3.2064155251E+00
   -3.2000026816E+00   -3.1936154384E+00   -3.1872536424E+00   -3.1809171419E+00
   -3.1746057863E+00   -3.1683194262E+00   -3.1620579135E+00   -3.1558211010E+00
   -3.1496088429E+00   -3.1434209946E+00   -3.1372574124E+00   -3.1311179539E+00
   -3.1250024776E+00   -3.1189108434E+00   -3.1128429122E+00   -3.1067985457E+00
   -3.1007776071E+00   -3.0947799604E+00   -3.0888054706E+00   -3.0828540040E+00
   -3.0769254277E+00   -3.0710196099E+00   -3.0651364198E+00   -3.0592757276E+00
   -3.0534374045E+00   -3.0476213226E+00   -3.0418273552E+00   -3.0360553763E+00
   -3.0303052611E+00   -3.0245768854E+00   -3.0188701263E+00   -3.0131848616E+00
   -3.0075209702E+00   -3.0018783316E+00   -2.9962568266E+00   -2.9906563366E+00
   -2.9850767440E+00   -2.9795179320E+00   -2.9739797848E+00   -2.9684621874E+00
   -2.9629650255E+00   -2.9574881860E+00   -2.9520315562E+00   -2.9465950245E+00
   -2.9411784801E+00   -2.9357818130E+00   -2.9304049139E+00   -2.9250476745E+00
   -2.9197099870E+00   -2.9143917448E+00   -2.9090928416E+00   -2.9038131722E+00
   -2.8985526322E+00   -2.8933111176E+00   -2.8880885255E+00   -2.8828847536E+00
   -2.8776997003E+00   -2.8725332648E+00   -2.8673853471E+00   -2.8622558477E+00
   -2.8571446680E+00   -2.8520517100E+00   -2.8469768765E+00   -2.8419200708E+00
   -2.8368811971E+00   -2.8318601601E+00   -2.8268568654E+00   -2.8218712190E+00
   -2.8169031277E+00   -2.8119524990E+00   -2.8070192410E+00   -2.8021032623E+00
   -2.7972044725E+00   -2.7923227814E+00   -2.7874580997E+00   -2.7826103387E+00
   -2.7777794102E+00   -2.7729652267E+00   -2.7681677013E+00   -2.7633867478E+00
   -2.7586222803E+00   -2.7538742138E+00   -2.7491424637E+00   -2.7444269460E+00
   -2.7397275774E+00   -2.7350442750E+00   -2.7303769567E+00   -2.7257255406E+00
   -2.7210899458E+00   -2.7164700915E+00   -2.7118658978E+00   -2.7072772851E+00
   -2.7027041745E+00   -2.6981464876E+00   -2.6936041465E+00   -2.6890770738E+00
   -2.6845651926E+00   -2.6800684267E+00   -2.6755867001E+00   -2.6711199376E+00
   -2.6666680643E+00   -2.6622310059E+00   -2.6578086887E+00   -2.6534010391E+00
   -2.6490079845E+00   -2.6446294524E+00   -2.6402653709E+00   -2.6359156686E+00
   -2.6315802746E+00   -2.6272591184E+00   -2.6229521299E+00   -2.6186592396E+00