<UPF version="2.0.1">
  <PP_INFO>

 This pseudopotential file has been produced using the code
 ONCVPSP  (Optimized Norm-Conservinng Vanderbilt PSeudopotential)
 scalar-relativistic version 3.3.1 12/12/2017 by D. R. Hamann
 The code is available through a link at URL www.mat-simresearch.com.
 Documentation with the package provides a full discription of the
 input data below.


 While it is not required under the terms of the GNU GPL, it is
 suggested that you cite D. R. Hamann, Phys. Rev. B 88, 085117 (2013)
 in any publication using these pseudopotentials.

    <PP_INPUTFILE>
# ATOM AND REFERENCE CONFIGURATION
# atsym  z   nc   nv     iexc    psfile
  Ar 18.00    3    2       4      upf
#
#   n    l    f        energy (Ha)
    1    0    2.00
    2    0    2.00
    2    1    6.00
    3    0    2.00
    3    1    6.00
#
# PSEUDOPOTENTIAL AND OPTIMIZATION
# lmax
    1
#
#   l,   rc,      ep,       ncon, nbas, qcut
    0   2.64980  -0.89253    5    8   7.97831
    1   1.77414  -0.37741    5    8   7.45116
#
# LOCAL POTENTIAL
# lloc, lpopt,  rc(5),   dvloc0
    4    5   1.40453      0.00000
#
# VANDERBILT-KLEINMAN-BYLANDER PROJECTORs
# l, nproj, debl
    0    2   0.88095
    1    2   3.20739
#
# MODEL CORE CHARGE
# icmod, fcfact, rcfact
    0   0.00000   0.00000
#
# LOG DERIVATIVE ANALYSIS
# epsh1, epsh2, depsh
   -5.00    3.00    0.02
#
# OUTPUT GRID
# rlmax, drl
    6.00    0.01
#
# TEST CONFIGURATIONS
# ncnf
    0
# nvcnf
#   n    l    f
    </PP_INPUTFILE>
  </PP_INFO>
  <!--                               -->
  <!-- END OF HUMAN READABLE SECTION -->
  <!--                               -->
    <PP_HEADER
       generated="Generated using ONCVPSP code by D. R. Hamann"
       author="anonymous"
       date="190614"
       comment=""
       element="Ar"
       pseudo_type="NC"
       relativistic="scalar"
       is_ultrasoft="F"
       is_paw="F"
       is_coulomb="F"
       has_so="F"
       has_wfc="F"
       has_gipaw="F"
       core_correction="F"
       functional="PBE"
       z_valence="    8.00"
       total_psenergy="  -4.22248425850E+01"
       rho_cutoff="   9.37000000000E+00"
       l_max="1"
       l_local="-1"
       mesh_size="   938"
       number_of_wfc="2"
       number_of_proj="4"/>
 <PP_MESH>
   <PP_R type="real"  size=" 938" columns="8">
    0.0000    0.0100    0.0200    0.0300    0.0400    0.0500    0.0600    0.0700
    0.0800    0.0900    0.1000    0.1100    0.1200    0.1300    0.1400    0.1500
    0.1600    0.1700    0.1800    0.1900    0.2000    0.2100    0.2200    0.2300
    0.2400    0.2500    0.2600    0.2700    0.2800    0.2900    0.3000    0.3100
    0.3200    0.3300    0.3400    0.3500    0.3600    0.3700    0.3800    0.3900
    0.4000    0.4100    0.4200    0.4300    0.4400    0.4500    0.4600    0.4700
    0.4800    0.4900    0.5000    0.5100    0.5200    0.5300    0.5400    0.5500
    0.5600    0.5700    0.5800    0.5900    0.6000    0.6100    0.6200    0.6300
    0.6400    0.6500    0.6600    0.6700    0.6800    0.6900    0.7000    0.7100
    0.7200    0.7300    0.7400    0.7500    0.7600    0.7700    0.7800    0.7900
    0.8000    0.8100    0.8200    0.8300    0.8400    0.8500    0.8600    0.8700
    0.8800    0.8900    0.9000    0.9100    0.9200    0.9300    0.9400    0.9500
    0.9600    0.9700    0.9800    0.9900    1.0000    1.0100    1.0200    1.0300
    1.0400    1.0500    1.0600    1.0700    1.0800    1.0900    1.1000    1.1100
    1.1200    1.1300    1.1400    1.1500    1.1600    1.1700    1.1800    1.1900
    1.2000    1.2100    1.2200    1.2300    1.2400    1.2500    1.2600    1.2700
    1.2800    1.2900    1.3000    1.3100    1.3200    1.3300    1.3400    1.3500
    1.3600    1.3700    1.3800    1.3900    1.4000    1.4100    1.4200    1.4300
    1.4400    1.4500    1.4600    1.4700    1.4800    1.4900    1.5000    1.5100
    1.5200    1.5300    1.5400    1.5500    1.5600    1.5700    1.5800    1.5900
    1.6000    1.6100    1.6200    1.6300    1.6400    1.6500    1.6600    1.6700
    1.6800    1.6900    1.7000    1.7100    1.7200    1.7300    1.7400    1.7500
    1.7600    1.7700    1.7800    1.7900    1.8000    1.8100    1.8200    1.8300
    1.8400    1.8500    1.8600    1.8700    1.8800    1.8900    1.9000    1.9100
    1.9200    1.9300    1.9400    1.9500    1.9600    1.9700    1.9800    1.9900
    2.0000    2.0100    2.0200    2.0300    2.0400    2.0500    2.0600    2.0700
    2.0800    2.0900    2.1000    2.1100    2.1200    2.1300    2.1400    2.1500
    2.1600    2.1700    2.1800    2.1900    2.2000    2.2100    2.2200    2.2300
    2.2400    2.2500    2.2600    2.2700    2.2800    2.2900    2.3000    2.3100
    2.3200    2.3300    2.3400    2.3500    2.3600    2.3700    2.3800    2.3900
    2.4000    2.4100    2.4200    2.4300    2.4400    2.4500    2.4600    2.4700
    2.4800    2.4900    2.5000    2.5100    2.5200    2.5300    2.5400    2.5500
    2.5600    2.5700    2.5800    2.5900    2.6000    2.6100    2.6200    2.6300
    2.6400    2.6500    2.6600    2.6700    2.6800    2.6900    2.7000    2.7100
    2.7200    2.7300    2.7400    2.7500    2.7600    2.7700    2.7800    2.7900
    2.8000    2.8100    2.8200    2.8300    2.8400    2.8500    2.8600    2.8700
    2.8800    2.8900    2.9000    2.9100    2.9200    2.9300    2.9400    2.9500
    2.9600    2.9700    2.9800    2.9900    3.0000    3.0100    3.0200    3.0300
    3.0400    3.0500    3.0600    3.0700    3.0800    3.0900    3.1000    3.1100
    3.1200    3.1300    3.1400    3.1500    3.1600    3.1700    3.1800    3.1900
    3.2000    3.2100    3.2200    3.2300    3.2400    3.2500    3.2600    3.2700
    3.2800    3.2900    3.3000    3.3100    3.3200    3.3300    3.3400    3.3500
    3.3600    3.3700    3.3800    3.3900    3.4000    3.4100    3.4200    3.4300
    3.4400    3.4500    3.4600    3.4700    3.4800    3.4900    3.5000    3.5100
    3.5200    3.5300    3.5400    3.5500    3.5600    3.5700    3.5800    3.5900
    3.6000    3.6100    3.6200    3.6300    3.6400    3.6500    3.6600    3.6700
    3.6800    3.6900    3.7000    3.7100    3.7200    3.7300    3.7400    3.7500
    3.7600    3.7700    3.7800    3.7900    3.8000    3.8100    3.8200    3.8300
    3.8400    3.8500    3.8600    3.8700    3.8800    3.8900    3.9000    3.9100
    3.9200    3.9300    3.9400    3.9500    3.9600    3.9700    3.9800    3.9900
    4.0000    4.0100    4.0200    4.0300    4.0400    4.0500    4.0600    4.0700
    4.0800    4.0900    4.1000    4.1100    4.1200    4.1300    4.1400    4.1500
    4.1600    4.1700    4.1800    4.1900    4.2000    4.2100    4.2200    4.2300
    4.2400    4.2500    4.2600    4.2700    4.2800    4.2900    4.3000    4.3100
    4.3200    4.3300    4.3400    4.3500    4.3600    4.3700    4.3800    4.3900
    4.4000    4.4100    4.4200    4.4300    4.4400    4.4500    4.4600    4.4700
    4.4800    4.4900    4.5000    4.5100    4.5200    4.5300    4.5400    4.5500
    4.5600    4.5700    4.5800    4.5900    4.6000    4.6100    4.6200    4.6300
    4.6400    4.6500    4.6600    4.6700    4.6800    4.6900    4.7000    4.7100
    4.7200    4.7300    4.7400    4.7500    4.7600    4.7700    4.7800    4.7900
    4.8000    4.8100    4.8200    4.8300    4.8400    4.8500    4.8600    4.8700
    4.8800    4.8900    4.9000    4.9100    4.9200    4.9300    4.9400    4.9500
    4.9600    4.9700    4.9800    4.9900    5.0000    5.0100    5.0200    5.0300
    5.0400    5.0500    5.0600    5.0700    5.0800    5.0900    5.1000    5.1100
    5.1200    5.1300    5.1400    5.1500    5.1600    5.1700    5.1800    5.1900
    5.2000    5.2100    5.2200    5.2300    5.2400    5.2500    5.2600    5.2700
    5.2800    5.2900    5.3000    5.3100    5.3200    5.3300    5.3400    5.3500
    5.3600    5.3700    5.3800    5.3900    5.4000    5.4100    5.4200    5.4300
    5.4400    5.4500    5.4600    5.4700    5.4800    5.4900    5.5000    5.5100
    5.5200    5.5300    5.5400    5.5500    5.5600    5.5700    5.5800    5.5900
    5.6000    5.6100    5.6200    5.6300    5.6400    5.6500    5.6600    5.6700
    5.6800    5.6900    5.7000    5.7100    5.7200    5.7300    5.7400    5.7500
    5.7600    5.7700    5.7800    5.7900    5.8000    5.8100    5.8200    5.8300
    5.8400    5.8500    5.8600    5.8700    5.8800    5.8900    5.9000    5.9100
    5.9200    5.9300    5.9400    5.9500    5.9600    5.9700    5.9800    5.9900
    6.0000    6.0100    6.0200    6.0300    6.0400    6.0500    6.0600    6.0700
    6.0800    6.0900    6.1000    6.1100    6.1200    6.1300    6.1400    6.1500
    6.1600    6.1700    6.1800    6.1900    6.2000    6.2100    6.2200    6.2300
    6.2400    6.2500    6.2600    6.2700    6.2800    6.2900    6.3000    6.3100
    6.3200    6.3300    6.3400    6.3500    6.3600    6.3700    6.3800    6.3900
    6.4000    6.4100    6.4200    6.4300    6.4400    6.4500    6.4600    6.4700
    6.4800    6.4900    6.5000    6.5100    6.5200    6.5300    6.5400    6.5500
    6.5600    6.5700    6.5800    6.5900    6.6000    6.6100    6.6200    6.6300
    6.6400    6.6500    6.6600    6.6700    6.6800    6.6900    6.7000    6.7100
    6.7200    6.7300    6.7400    6.7500    6.7600    6.7700    6.7800    6.7900
    6.8000    6.8100    6.8200    6.8300    6.8400    6.8500    6.8600    6.8700
    6.8800    6.8900    6.9000    6.9100    6.9200    6.9300    6.9400    6.9500
    6.9600    6.9700    6.9800    6.9900    7.0000    7.0100    7.0200    7.0300
    7.0400    7.0500    7.0600    7.0700    7.0800    7.0900    7.1000    7.1100
    7.1200    7.1300    7.1400    7.1500    7.1600    7.1700    7.1800    7.1900
    7.2000    7.2100    7.2200    7.2300    7.2400    7.2500    7.2600    7.2700
    7.2800    7.2900    7.3000    7.3100    7.3200    7.3300    7.3400    7.3500
    7.3600    7.3700    7.3800    7.3900    7.4000    7.4100    7.4200    7.4300
    7.4400    7.4500    7.4600    7.4700    7.4800    7.4900    7.5000    7.5100
    7.5200    7.5300    7.5400    7.5500    7.5600    7.5700    7.5800    7.5900
    7.6000    7.6100    7.6200    7.6300    7.6400    7.6500    7.6600    7.6700
    7.6800    7.6900    7.7000    7.7100    7.7200    7.7300    7.7400    7.7500
    7.7600    7.7700    7.7800    7.7900    7.8000    7.8100    7.8200    7.8300
    7.8400    7.8500    7.8600    7.8700    7.8800    7.8900    7.9000    7.9100
    7.9200    7.9300    7.9400    7.9500    7.9600    7.9700    7.9800    7.9900
    8.0000    8.0100    8.0200    8.0300    8.0400    8.0500    8.0600    8.0700
    8.0800    8.0900    8.1000    8.1100    8.1200    8.1300    8.1400    8.1500
    8.1600    8.1700    8.1800    8.1900    8.2000    8.2100    8.2200    8.2300
    8.2400    8.2500    8.2600    8.2700    8.2800    8.2900    8.3000    8.3100
    8.3200    8.3300    8.3400    8.3500    8.3600    8.3700    8.3800    8.3900
    8.4000    8.4100    8.4200    8.4300    8.4400    8.4500    8.4600    8.4700
    8.4800    8.4900    8.5000    8.5100    8.5200    8.5300    8.5400    8.5500
    8.5600    8.5700    8.5800    8.5900    8.6000    8.6100    8.6200    8.6300
    8.6400    8.6500    8.6600    8.6700    8.6800    8.6900    8.7000    8.7100
    8.7200    8.7300    8.7400    8.7500    8.7600    8.7700    8.7800    8.7900
    8.8000    8.8100    8.8200    8.8300    8.8400    8.8500    8.8600    8.8700
    8.8800    8.8900    8.9000    8.9100    8.9200    8.9300    8.9400    8.9500
    8.9600    8.9700    8.9800    8.9900    9.0000    9.0100    9.0200    9.0300
    9.0400    9.0500    9.0600    9.0700    9.0800    9.0900    9.1000    9.1100
    9.1200    9.1300    9.1400    9.1500    9.1600    9.1700    9.1800    9.1900
    9.2000    9.2100    9.2200    9.2300    9.2400    9.2500    9.2600    9.2700
    9.2800    9.2900    9.3000    9.3100    9.3200    9.3300    9.3400    9.3500
    9.3600    9.3700
   </PP_R>
   <PP_RAB type="real"  size=" 938" columns="8">
    0.0100    0.0100    0.0100    0.0100    0.0100    0.0100    0.0100    0.0100
    0.0100    0.0100    0.0100    0.0100    0.0100    0.0100    0.0100    0.0100
    0.0100    0.0100    0.0100    0.0100    0.0100    0.0100    0.0100    0.0100
    0.0100    0.0100    0.0100    0.0100    0.0100    0.0100    0.0100    0.0100
    0.0100    0.0100    0.0100    0.0100    0.0100    0.0100    0.0100    0.0100
    0.0100    0.0100    0.0100    0.0100    0.0100    0.0100    0.0100    0.0100
    0.0100    0.0100    0.0100    0.0100    0.0100    0.0100    0.0100    0.0100
    0.0100    0.0100    0.0100    0.0100    0.0100    0.0100    0.0100    0.0100
    0.0100    0.0100    0.0100    0.0100    0.0100    0.0100    0.0100    0.0100
    0.0100    0.0100    0.0100    0.0100    0.0100    0.0100    0.0100    0.0100
    0.0100    0.0100    0.0100    0.0100    0.0100    0.0100    0.0100    0.0100
    0.0100    0.0100    0.0100    0.0100    0.0100    0.0100    0.0100    0.0100
    0.0100    0.0100    0.0100    0.0100    0.0100    0.0100    0.0100    0.0100
    0.0100    0.0100    0.0100    0.0100    0.0100    0.0100    0.0100    0.0100
    0.0100    0.0100    0.0100    0.0100    0.0100    0.0100    0.0100    0.0100
    0.0100    0.0100    0.0100    0.0100    0.0100    0.0100    0.0100    0.0100
    0.0100    0.0100    0.0100    0.0100    0.0100    0.0100    0.0100    0.0100
    0.0100    0.0100    0.0100    0.0100    0.0100    0.0100    0.0100    0.0100
    0.0100    0.0100    0.0100    0.0100    0.0100    0.0100    0.0100    0.0100
    0.0100    0.0100    0.0100    0.0100    0.0100    0.0100    0.0100    0.0100
    0.0100    0.0100    0.0100    0.0100    0.0100    0.0100    0.0100    0.0100
    0.0100    0.0100    0.0100    0.0100    0.0100    0.0100    0.0100    0.0100
    0.0100    0.0100    0.0100    0.0100    0.0100    0.0100    0.0100    0.0100
    0.0100    0.0100    0.0100    0.0100    0.0100    0.0100    0.0100    0.0100
    0.0100    0.0100    0.0100    0.0100    0.0100    0.0100    0.0100    0.0100
    0.0100    0.0100    0.0100    0.0100    0.0100    0.0100    0.0100    0.0100
    0.0100    0.0100    0.0100    0.0100    0.0100    0.0100    0.0100    0.0100
    0.0100    0.0100    0.0100    0.0100    0.0100    0.0100    0.0100    0.0100
    0.0100    0.0100    0.0100    0.0100    0.0100    0.0100    0.0100    0.0100
    0.0100    0.0100    0.0100    0.0100    0.0100    0.0100    0.0100    0.0100
    0.0100    0.0100    0.0100    0.0100    0.0100    0.0100    0.0100    0.0100
    0.0100    0.0100    0.0100    0.0100    0.0100    0.0100    0.0100    0.0100
    0.0100    0.0100    0.0100    0.0100    0.0100    0.0100    0.0100    0.0100
    0.0100    0.0100    0.0100    0.0100    0.0100    0.0100    0.0100    0.0100
    0.0100    0.0100    0.0100    0.0100    0.0100    0.0100    0.0100    0.0100
    0.0100    0.0100    0.0100    0.0100    0.0100    0.0100    0.0100    0.0100
    0.0100    0.0100    0.0100    0.0100    0.0100    0.0100    0.0100    0.0100
    0.0100    0.0100    0.0100    0.0100    0.0100    0.0100    0.0100    0.0100
    0.0100    0.0100    0.0100    0.0100    0.0100    0.0100    0.0100    0.0100
    0.0100    0.0100    0.0100    0.0100    0.0100    0.0100    0.0100    0.0100
    0.0100    0.0100    0.0100    0.0100    0.0100    0.0100    0.0100    0.0100
    0.0100    0.0100    0.0100    0.0100    0.0100    0.0100    0.0100    0.0100
    0.0100    0.0100    0.0100    0.0100    0.0100    0.0100    0.0100    0.0100
    0.0100    0.0100    0.0100    0.0100    0.0100    0.0100    0.0100    0.0100
    0.0100    0.0100    0.0100    0.0100    0.0100    0.0100    0.0100    0.0100
    0.0100    0.0100    0.0100    0.0100    0.0100    0.0100    0.0100    0.0100
    0.0100    0.0100    0.0100    0.0100    0.0100    0.0100    0.0100    0.0100
    0.0100    0.0100    0.0100    0.0100    0.0100    0.0100    0.0100    0.0100
    0.0100    0.0100    0.0100    0.0100    0.0100    0.0100    0.0100    0.0100
    0.0100    0.0100    0.0100    0.0100    0.0100    0.0100    0.0100    0.0100
    0.0100    0.0100    0.0100    0.0100    0.0100    0.0100    0.0100    0.0100
    0.0100    0.0100    0.0100    0.0100    0.0100    0.0100    0.0100    0.0100
    0.0100    0.0100    0.0100    0.0100    0.0100    0.0100    0.0100    0.0100
    0.0100    0.0100    0.0100    0.0100    0.0100    0.0100    0.0100    0.0100
    0.0100    0.0100    0.0100    0.0100    0.0100    0.0100    0.0100    0.0100
    0.0100    0.0100    0.0100    0.0100    0.0100    0.0100    0.0100    0.0100
    0.0100    0.0100    0.0100    0.0100    0.0100    0.0100    0.0100    0.0100
    0.0100    0.0100    0.0100    0.0100    0.0100    0.0100    0.0100    0.0100
    0.0100    0.0100    0.0100    0.0100    0.0100    0.0100    0.0100    0.0100
    0.0100    0.0100    0.0100    0.0100    0.0100    0.0100    0.0100    0.0100
    0.0100    0.0100    0.0100    0.0100    0.0100    0.0100    0.0100    0.0100
    0.0100    0.0100    0.0100    0.0100    0.0100    0.0100    0.0100    0.0100
    0.0100    0.0100    0.0100    0.0100    0.0100    0.0100    0.0100    0.0100
    0.0100    0.0100    0.0100    0.0100    0.0100    0.0100    0.0100    0.0100
    0.0100    0.0100    0.0100    0.0100    0.0100    0.0100    0.0100    0.0100
    0.0100    0.0100    0.0100    0.0100    0.0100    0.0100    0.0100    0.0100
    0.0100    0.0100    0.0100    0.0100    0.0100    0.0100    0.0100    0.0100
    0.0100    0.0100    0.0100    0.0100    0.0100    0.0100    0.0100    0.0100
    0.0100    0.0100    0.0100    0.0100    0.0100    0.0100    0.0100    0.0100
    0.0100    0.0100    0.0100    0.0100    0.0100    0.0100    0.0100    0.0100
    0.0100    0.0100    0.0100    0.0100    0.0100    0.0100    0.0100    0.0100
    0.0100    0.0100    0.0100    0.0100    0.0100    0.0100    0.0100    0.0100
    0.0100    0.0100    0.0100    0.0100    0.0100    0.0100    0.0100    0.0100
    0.0100    0.0100    0.0100    0.0100    0.0100    0.0100    0.0100    0.0100
    0.0100    0.0100    0.0100    0.0100    0.0100    0.0100    0.0100    0.0100
    0.0100    0.0100    0.0100    0.0100    0.0100    0.0100    0.0100    0.0100
    0.0100    0.0100    0.0100    0.0100    0.0100    0.0100    0.0100    0.0100
    0.0100    0.0100    0.0100    0.0100    0.0100    0.0100    0.0100    0.0100
    0.0100    0.0100    0.0100    0.0100    0.0100    0.0100    0.0100    0.0100
    0.0100    0.0100    0.0100    0.0100    0.0100    0.0100    0.0100    0.0100
    0.0100    0.0100    0.0100    0.0100    0.0100    0.0100    0.0100    0.0100
    0.0100    0.0100    0.0100    0.0100    0.0100    0.0100    0.0100    0.0100
    0.0100    0.0100    0.0100    0.0100    0.0100    0.0100    0.0100    0.0100
    0.0100    0.0100    0.0100    0.0100    0.0100    0.0100    0.0100    0.0100
    0.0100    0.0100    0.0100    0.0100    0.0100    0.0100    0.0100    0.0100
    0.0100    0.0100    0.0100    0.0100    0.0100    0.0100    0.0100    0.0100
    0.0100    0.0100    0.0100    0.0100    0.0100    0.0100    0.0100    0.0100
    0.0100    0.0100    0.0100    0.0100    0.0100    0.0100    0.0100    0.0100
    0.0100    0.0100    0.0100    0.0100    0.0100    0.0100    0.0100    0.0100
    0.0100    0.0100    0.0100    0.0100    0.0100    0.0100    0.0100    0.0100
    0.0100    0.0100    0.0100    0.0100    0.0100    0.0100    0.0100    0.0100
    0.0100    0.0100    0.0100    0.0100    0.0100    0.0100    0.0100    0.0100
    0.0100    0.0100    0.0100    0.0100    0.0100    0.0100    0.0100    0.0100
    0.0100    0.0100    0.0100    0.0100    0.0100    0.0100    0.0100    0.0100
    0.0100    0.0100    0.0100    0.0100    0.0100    0.0100    0.0100    0.0100
    0.0100    0.0100    0.0100    0.0100    0.0100    0.0100    0.0100    0.0100
    0.0100    0.0100    0.0100    0.0100    0.0100    0.0100    0.0100    0.0100
    0.0100    0.0100    0.0100    0.0100    0.0100    0.0100    0.0100    0.0100
    0.0100    0.0100    0.0100    0.0100    0.0100    0.0100    0.0100    0.0100
    0.0100    0.0100    0.0100    0.0100    0.0100    0.0100    0.0100    0.0100
    0.0100    0.0100    0.0100    0.0100    0.0100    0.0100    0.0100    0.0100
    0.0100    0.0100    0.0100    0.0100    0.0100    0.0100    0.0100    0.0100
    0.0100    0.0100    0.0100    0.0100    0.0100    0.0100    0.0100    0.0100
    0.0100    0.0100    0.0100    0.0100    0.0100    0.0100    0.0100    0.0100
    0.0100    0.0100    0.0100    0.0100    0.0100    0.0100    0.0100    0.0100
    0.0100    0.0100    0.0100    0.0100    0.0100    0.0100    0.0100    0.0100
    0.0100    0.0100    0.0100    0.0100    0.0100    0.0100    0.0100    0.0100
    0.0100    0.0100    0.0100    0.0100    0.0100    0.0100    0.0100    0.0100
    0.0100    0.0100    0.0100    0.0100    0.0100    0.0100    0.0100    0.0100
    0.0100    0.0100    0.0100    0.0100    0.0100    0.0100    0.0100    0.0100
    0.0100    0.0100    0.0100    0.0100    0.0100    0.0100    0.0100    0.0100
    0.0100    0.0100    0.0100    0.0100    0.0100    0.0100    0.0100    0.0100
    0.0100    0.0100    0.0100    0.0100    0.0100    0.0100    0.0100    0.0100
    0.0100    0.0100    0.0100    0.0100    0.0100    0.0100    0.0100    0.0100
    0.0100    0.0100    0.0100    0.0100    0.0100    0.0100    0.0100    0.0100
    0.0100    0.0100    0.0100    0.0100    0.0100    0.0100    0.0100    0.0100
    0.0100    0.0100    0.0100    0.0100    0.0100    0.0100    0.0100    0.0100
    0.0100    0.0100
   </PP_RAB>
 </PP_MESH>
  <PP_LOCAL type="real"  size=" 938" columns="4">
   -2.5517685979E+01   -2.5637273424E+01   -2.6304162454E+01   -2.6900947941E+01
   -2.7216573288E+01   -2.7264011147E+01   -2.7140577433E+01   -2.6939630179E+01
   -2.6722404712E+01   -2.6519704508E+01   -2.6342398837E+01   -2.6191004131E+01
   -2.6061796953E+01   -2.5949978090E+01   -2.5851033485E+01   -2.5761178338E+01
   -2.5677400658E+01   -2.5597361281E+01   -2.5519263261E+01   -2.5441733209E+01
   -2.5363726185E+01   -2.5284453627E+01   -2.5203329949E+01   -2.5119933032E+01
   -2.5033974485E+01   -2.4945276543E+01   -2.4853753359E+01   -2.4759395153E+01
   -2.4662254276E+01   -2.4562432636E+01   -2.4460070195E+01   -2.4355334490E+01
   -2.4248411166E+01   -2.4139495625E+01   -2.4028785833E+01   -2.3916476367E+01
   -2.3802753687E+01   -2.3687792606E+01   -2.3571753862E+01   -2.3454782697E+01
   -2.3337008258E+01   -2.3218543706E+01   -2.3099486831E+01   -2.2979921058E+01
   -2.2859916682E+01   -2.2739532232E+01   -2.2618815870E+01   -2.2497806743E+01
   -2.2376536259E+01   -2.2255029230E+01   -2.2133304883E+01   -2.2011377728E+01
   -2.1889258275E+01   -2.1766953637E+01   -2.1644467994E+01   -2.1521802971E+01
   -2.1398957919E+01   -2.1275930138E+01   -2.1152715039E+01   -2.1029306276E+01
   -2.0905695856E+01   -2.0781874243E+01   -2.0657830459E+01   -2.0533552214E+01
   -2.0409026040E+01   -2.0284237469E+01   -2.0159171237E+01   -2.0033811529E+01
   -1.9908142253E+01   -1.9782147362E+01   -1.9655811198E+01   -1.9529118870E+01
   -1.9402056652E+01   -1.9274612397E+01   -1.9146775952E+01   -1.9018539571E+01
   -1.8889898316E+01   -1.8760850427E+01   -1.8631397665E+01   -1.8501545603E+01
   -1.8371303876E+01   -1.8240686363E+01   -1.8109711315E+01   -1.7978401411E+01
   -1.7846783754E+01   -1.7714889797E+01   -1.7582755203E+01   -1.7450419656E+01
   -1.7317926610E+01   -1.7185322993E+01   -1.7052658876E+01   -1.6919987106E+01
   -1.6787362921E+01   -1.6654843550E+01   -1.6522487803E+01   -1.6390355668E+01
   -1.6258507908E+01   -1.6127005684E+01   -1.5995910181E+01   -1.5865282267E+01
   -1.5735182176E+01   -1.5605669214E+01   -1.5476801500E+01   -1.5348635726E+01
   -1.5221226958E+01   -1.5094628458E+01   -1.4968891528E+01   -1.4844065390E+01
   -1.4720197084E+01   -1.4597331382E+01   -1.4475510727E+01   -1.4354775193E+01
   -1.4235162443E+01   -1.4116707722E+01   -1.3999443842E+01   -1.3883401185E+01
   -1.3768607712E+01   -1.3655088976E+01   -1.3542868141E+01   -1.3431966003E+01
   -1.3322401013E+01   -1.3214189302E+01   -1.3107344708E+01   -1.3001878798E+01
   -1.2897800895E+01   -1.2795118098E+01   -1.2693835306E+01   -1.2593955236E+01
   -1.2495478444E+01   -1.2398403334E+01   -1.2302726176E+01   -1.2208441117E+01
   -1.2115540183E+01   -1.2024013290E+01   -1.1933848243E+01   -1.1845030736E+01
   -1.1757544351E+01   -1.1671370552E+01   -1.1586488656E+01   -1.1502875915E+01
   -1.1420507318E+01   -1.1339355602E+01   -1.1259392375E+01   -1.1180589037E+01
   -1.1102917889E+01   -1.1026352152E+01   -1.0950865763E+01   -1.0876433487E+01
   -1.0803030884E+01   -1.0730634305E+01   -1.0659220892E+01   -1.0588768560E+01
   -1.0519255989E+01   -1.0450662608E+01   -1.0382968579E+01   -1.0316154779E+01
   -1.0250202777E+01   -1.0185094814E+01   -1.0120813773E+01   -1.0057343161E+01
   -9.9946670710E+00   -9.9327701587E+00   -9.8716376085E+00   -9.8112551023E+00
   -9.7516087857E+00   -9.6926852343E+00   -9.6344714194E+00   -9.5769546738E+00
   -9.5201226579E+00   -9.4639633254E+00   -9.4084648912E+00   -9.3536157994E+00
   -9.2994046935E+00   -9.2458203843E+00   -9.1928518390E+00   -9.1404881331E+00
   -9.0887184298E+00   -9.0375319986E+00   -8.9869181475E+00   -8.9368663894E+00
   -8.8873666625E+00   -8.8384093321E+00   -8.7899852461E+00   -8.7420856647E+00
   -8.6947019162E+00   -8.6478252412E+00   -8.6014471321E+00   -8.5555595591E+00
   -8.5101547083E+00   -8.4652248201E+00   -8.4207623143E+00   -8.3767598261E+00
   -8.3332101829E+00   -8.2901063775E+00   -8.2474415607E+00   -8.2052090448E+00
   -8.1634022989E+00   -8.1220149419E+00   -8.0810407374E+00   -8.0404735888E+00
   -8.0003075351E+00   -7.9605367456E+00   -7.9211555162E+00   -7.8821582643E+00
   -7.8435395248E+00   -7.8052939464E+00   -7.7674162873E+00   -7.7299014112E+00
   -7.6927442840E+00   -7.6559399701E+00   -7.6194836289E+00   -7.5833705115E+00
   -7.5475959578E+00   -7.5121553929E+00   -7.4770443251E+00   -7.4422583423E+00
   -7.4077931096E+00   -7.3736443672E+00   -7.3398079275E+00   -7.3062796732E+00
   -7.2730555547E+00   -7.2401315888E+00   -7.2075038560E+00   -7.1751684995E+00
   -7.1431217227E+00   -7.1113597885E+00   -7.0798790169E+00   -7.0486757845E+00
   -7.0177465227E+00   -6.9870877164E+00   -6.9566959035E+00   -6.9265676732E+00
   -6.8966996657E+00   -6.8670885706E+00   -6.8377311267E+00   -6.8086241209E+00
   -6.7797643878E+00   -6.7511488086E+00   -6.7227743111E+00   -6.6946378685E+00
   -6.6667364994E+00   -6.6390672670E+00   -6.6116272787E+00   -6.5844136858E+00
   -6.5574236828E+00   -6.5306545071E+00   -6.5041034388E+00   -6.4777677999E+00
   -6.4516449543E+00   -6.4257323068E+00   -6.4000273035E+00   -6.3745274308E+00
   -6.3492302149E+00   -6.3241332220E+00   -6.2992340570E+00   -6.2745303637E+00
   -6.2500198242E+00   -6.2257001579E+00   -6.2015691217E+00   -6.1776245090E+00
   -6.1538641495E+00   -6.1302859081E+00   -6.1068876851E+00   -6.0836674151E+00
   -6.0606230665E+00   -6.0377526408E+00   -6.0150541724E+00   -5.9925257274E+00
   -5.9701654021E+00   -5.9479713224E+00   -5.9259416427E+00   -5.9040745451E+00
   -5.8823682377E+00   -5.8608209524E+00   -5.8394309472E+00   -5.8181965048E+00
   -5.7971159350E+00   -5.7761875717E+00   -5.7554097730E+00   -5.7347809200E+00
   -5.7142994167E+00   -5.6939636899E+00   -5.6737721888E+00   -5.6537233845E+00
   -5.6338157698E+00   -5.6140478584E+00   -5.5944181851E+00   -5.5749253047E+00
   -5.5555677924E+00   -5.5363442430E+00   -5.5172532708E+00   -5.4982935089E+00
   -5.4794636093E+00   -5.4607622425E+00   -5.4421880968E+00   -5.4237398785E+00
   -5.4054163113E+00   -5.3872161362E+00   -5.3691381109E+00   -5.3511810099E+00
   -5.3333436240E+00   -5.3156247601E+00   -5.2980232406E+00   -5.2805379039E+00
   -5.2631676035E+00   -5.2459112077E+00   -5.2287676000E+00   -5.2117356782E+00
   -5.1948143544E+00   -5.1780025549E+00   -5.1612992198E+00   -5.1447033028E+00
   -5.1282137711E+00   -5.1118296050E+00   -5.0955497978E+00   -5.0793733557E+00
   -5.0632992973E+00   -5.0473266538E+00   -5.0314544683E+00   -5.0156817963E+00
   -5.0000077046E+00   -4.9844312721E+00   -4.9689515888E+00   -4.9535677562E+00
   -4.9382788868E+00   -4.9230841039E+00   -4.9079825418E+00   -4.8929733453E+00
   -4.8780556695E+00   -4.8632286799E+00   -4.8484915520E+00   -4.8338434715E+00
   -4.8192836337E+00   -4.8048112436E+00   -4.7904255157E+00   -4.7761256740E+00
   -4.7619109517E+00   -4.7477805909E+00   -4.7337338429E+00   -4.7197699678E+00
   -4.7058882344E+00   -4.6920879199E+00   -4.6783683103E+00   -4.6647286995E+00
   -4.6511683899E+00   -4.6376866920E+00   -4.6242829242E+00   -4.6109564127E+00
   -4.5977064914E+00   -4.5845325020E+00   -4.5714337937E+00   -4.5584097231E+00
   -4.5454596539E+00   -4.5325829573E+00   -4.5197790114E+00   -4.5070472016E+00
   -4.4943869198E+00   -4.4817975650E+00   -4.4692785428E+00   -4.4568292655E+00
   -4.4444491518E+00   -4.4321376270E+00   -4.4198941226E+00   -4.4077180765E+00
   -4.3956089327E+00   -4.3835661413E+00   -4.3715891584E+00   -4.3596774461E+00
   -4.3478304723E+00   -4.3360477105E+00   -4.3243286402E+00   -4.3126727463E+00
   -4.3010795193E+00   -4.2895484552E+00   -4.2780790554E+00   -4.2666708264E+00
   -4.2553232803E+00   -4.2440359341E+00   -4.2328083100E+00   -4.2216399354E+00
   -4.2105303423E+00   -4.1994790680E+00   -4.1884856544E+00   -4.1775496484E+00
   -4.1666706013E+00   -4.1558480694E+00   -4.1450816134E+00   -4.1343707985E+00
   -4.1237151947E+00   -4.1131143759E+00   -4.1025679209E+00   -4.0920754125E+00
   -4.0816364378E+00   -4.0712505882E+00   -4.0609174590E+00   -4.0506366500E+00
   -4.0404077647E+00   -4.0302304108E+00   -4.0201041997E+00   -4.0100287471E+00
   -4.0000036720E+00   -3.9900285978E+00   -3.9801031511E+00   -3.9702269626E+00
   -3.9603996664E+00   -3.9506209005E+00   -3.9408903061E+00   -3.9312075282E+00
   -3.9215722152E+00   -3.9119840189E+00   -3.9024425946E+00   -3.8929476008E+00
   -3.8834986994E+00   -3.8740955557E+00   -3.8647378380E+00   -3.8554252180E+00
   -3.8461573703E+00   -3.8369339730E+00   -3.8277547069E+00   -3.8186192561E+00